
Beginning iteration
Beginning structure selection
Crossing structures: C:4_H:10_N:2_O:4/0/ddfa0bbd69 + C:4_H:10_N:2_O:4/0/504537ac92
Beginning crossover
geometries to cross: 
lattice_vector 4.75877 0.0 0.0
lattice_vector 0.032416424561 4.75870826493 0.0
lattice_vector 0.0137603096593 -1.29525629254 5.26638739235
atom -1.02745 0.82460 3.09027 C
atom -1.42983 0.87616 1.64432 C
atom -1.27731 -0.10077 1.19873 H
atom -2.48096 1.13435 1.59226 H
atom -0.63908 1.88308 0.93534 N
atom -0.87593 2.79999 1.28408 H
atom 0.34759 1.72620 1.07677 H
atom -0.84228 1.85297 -0.05606 H
atom -1.25311 -0.21647 3.74385 O
atom -0.49861 1.83681 3.59449 O
atom 1.49691 -2.82506 5.75363 C
atom 1.88249 -2.79134 4.30269 C
atom 2.93855 -2.55822 4.23441 H
atom 1.70178 -3.76723 3.86609 H
atom 1.10814 -1.76969 3.59731 N
atom 1.24645 -1.85310 2.59773 H
atom 0.12416 -1.85670 3.80485 H
atom 1.42225 -0.85571 3.88930 H
atom 1.70388 -3.86954 6.40786 O
atom 0.99117 -1.80064 6.25770 O

lattice_vector 6.463902 0.0 0.0
lattice_vector 3.30439220398e-16 6.463902 0.0
lattice_vector -0.495178511818 2.65849157315e-16 4.6791132194
atom -0.28161 1.53963 2.45692 C
atom -0.62209 0.09536 2.67476 C
atom -0.56218 -0.11556 3.73414 H
atom -1.63285 -0.10119 2.32911 H
atom 0.32257 -0.74686 1.95829 N
atom 0.33610 -0.51369 0.97661 H
atom 1.24288 -0.59525 2.34551 H
atom 0.06306 -1.72015 2.07125 H
atom -1.24127 2.31628 2.29894 O
atom 0.91445 1.90411 2.43328 O
atom 3.14818 4.18532 0.07266 C
atom 2.86656 2.74286 0.36677 C
atom 3.09423 2.54886 1.40426 H
atom 1.81614 2.53011 0.18382 H
atom 3.67856 1.90465 -0.49947 N
atom 3.29566 1.93607 -1.43346 H
atom 4.63177 2.24226 -0.51427 H
atom 3.64280 0.94297 -0.18257 H
atom 2.16294 4.91295 -0.15524 O
atom 4.32777 4.59471 0.05378 O

crossed_geometry: 
lattice_vector 4.75877 0.0 0.0
lattice_vector 0.032416424561 4.75870826493 0.0
lattice_vector 0.0137603096593 -1.29525629254 5.26638739235
atom -1.84179 0.00946 2.45692 C
atom -2.18228 -1.43481 2.67476 C
atom -2.12237 -1.64573 3.73414 H
atom -3.19303 -1.63136 2.32911 H
atom -1.23762 -2.27704 1.95829 N
atom -1.22409 -2.04386 0.97661 H
atom -0.31730 -2.12542 2.34551 H
atom -1.49712 -3.25032 2.07125 H
atom -2.80145 0.78611 2.29894 O
atom -0.64573 0.37393 2.43328 O
atom 1.26497 -2.25854 5.75363 C
atom 1.65055 -2.22482 4.30269 C
atom 2.70661 -1.99170 4.23441 H
atom 1.46984 -3.20072 3.86609 H
atom 0.87620 -1.20317 3.59731 N
atom 1.01451 -1.28659 2.59773 H
atom -0.10778 -1.29019 3.80485 H
atom 1.19031 -0.28919 3.88930 H
atom 1.47194 -3.30302 6.40786 O
atom 0.75923 -1.23412 6.25770 O

Beginning mutation
Beginning relaxation
