
Beginning iteration
Beginning structure selection
Crossing structures: C:4_H:10_N:2_O:4/0/8df10ce06a + C:4_H:10_N:2_O:4/0/a91529895b
Beginning crossover
geometries to cross: 
lattice_vector 7.178584 0.0 0.0
lattice_vector -0.557209002757 7.13882170376 0.0
lattice_vector -0.928811461315 -1.05563841369 3.89156578653
atom -2.08101 -0.78731 2.11796 C
atom -2.10755 -2.27329 2.31489 C
atom -1.63659 -2.48804 3.26041 H
atom -3.13413 -2.61046 2.32543 H
atom -1.37627 -2.95122 1.24439 N
atom -1.88269 -2.86774 0.37174 H
atom -0.45792 -2.54088 1.13206 H
atom -1.27623 -3.93393 1.46888 H
atom -3.10779 -0.11449 2.35044 O
atom -0.99628 -0.27978 1.77281 O
atom 1.69409 2.56342 0.23280 C
atom 1.66753 1.07744 0.42972 C
atom 2.13848 0.86268 1.37525 H
atom 0.64095 0.74027 0.44025 H
atom 2.39883 0.39951 -0.64077 N
atom 1.89240 0.48295 -1.51341 H
atom 3.31716 0.80988 -0.75312 H
atom 2.49890 -0.58319 -0.41625 H
atom 0.66731 3.23624 0.46529 O
atom 2.77882 3.07094 -0.11236 O

lattice_vector 4.830373 0.0 0.0
lattice_vector 3.89601111244e-16 4.830373 0.0
lattice_vector 0.0483795758802 4.32335796539e-16 5.40837161911
atom 1.20497 4.69113 2.09160 C
atom 0.86416 4.38669 0.66070 C
atom 1.14782 3.36382 0.42816 H
atom -0.20567 4.49993 0.52303 H
atom 1.57521 5.30845 -0.21415 N
atom 1.19223 6.23368 -0.08161 H
atom 2.55956 5.32993 0.01499 H
atom 1.45770 5.02600 -1.18031 H
atom 1.13651 3.74374 2.89496 O
atom 1.57784 5.84018 2.41895 O
atom 3.82686 1.43234 4.70395 C
atom 4.10827 1.20218 3.24538 C
atom 5.09085 1.58654 3.01247 H
atom 4.08130 0.13475 3.04036 H
atom 3.09919 1.85646 2.42565 N
atom 2.24614 1.31592 2.46638 H
atom 2.91492 2.78841 2.77554 H
atom 3.40115 1.88697 1.45874 H
atom 3.98464 0.45537 5.46359 O
atom 3.40898 2.54425 5.09198 O

crossed_geometry: 
lattice_vector 4.830373 0.0 0.0
lattice_vector 3.89601111244e-16 4.830373 0.0
lattice_vector 0.0483795758802 4.32335796539e-16 5.40837161911
atom -1.22866 1.50979 2.09160 C
atom -1.56948 1.20535 0.66070 C
atom -1.28581 0.18248 0.42816 H
atom -2.63930 1.31859 0.52303 H
atom -0.85842 2.12711 -0.21415 N
atom -1.24140 3.05234 -0.08161 H
atom 0.12593 2.14860 0.01499 H
atom -0.97593 1.84466 -1.18031 H
atom -1.29713 0.56240 2.89496 O
atom -0.85579 2.65884 2.41895 O
atom 1.61218 2.97277 0.23280 C
atom 1.58563 1.48679 0.42972 C
atom 2.05658 1.27203 1.37525 H
atom 0.55905 1.14962 0.44025 H
atom 2.31693 0.80886 -0.64077 N
atom 1.81050 0.89230 -1.51341 H
atom 3.23526 1.21923 -0.75312 H
atom 2.41700 -0.17384 -0.41625 H
atom 0.58540 3.64559 0.46529 O
atom 2.69691 3.48029 -0.11236 O

Beginning mutation
Beginning relaxation
