Replica: cd5f05fc39
Beginning iteration
Beginning structure selection
Crossing structures: C:4_H:10_N:2_O:4/0/504537ac92 + C:4_H:10_N:2_O:4/0/a91529895b
Beginning crossover
geometries to cross: 
lattice_vector 6.463902 0.0 0.0
lattice_vector 3.30439220398e-16 6.463902 0.0
lattice_vector -0.495178511818 2.65849157315e-16 4.6791132194
atom -0.28161 1.53963 2.45692 C
atom -0.62209 0.09536 2.67476 C
atom -0.56218 -0.11556 3.73414 H
atom -1.63285 -0.10119 2.32911 H
atom 0.32257 -0.74686 1.95829 N
atom 0.33610 -0.51369 0.97661 H
atom 1.24288 -0.59525 2.34551 H
atom 0.06306 -1.72015 2.07125 H
atom -1.24127 2.31628 2.29894 O
atom 0.91445 1.90411 2.43328 O
atom 3.14818 4.18532 0.07266 C
atom 2.86656 2.74286 0.36677 C
atom 3.09423 2.54886 1.40426 H
atom 1.81614 2.53011 0.18382 H
atom 3.67856 1.90465 -0.49947 N
atom 3.29566 1.93607 -1.43346 H
atom 4.63177 2.24226 -0.51427 H
atom 3.64280 0.94297 -0.18257 H
atom 2.16294 4.91295 -0.15524 O
atom 4.32777 4.59471 0.05378 O

lattice_vector 4.830373 0.0 0.0
lattice_vector 3.89601111244e-16 4.830373 0.0
lattice_vector 0.0483795758802 4.32335796539e-16 5.40837161911
atom 1.20497 4.69113 2.09160 C
atom 0.86416 4.38669 0.66070 C
atom 1.14782 3.36382 0.42816 H
atom -0.20567 4.49993 0.52303 H
atom 1.57521 5.30845 -0.21415 N
atom 1.19223 6.23368 -0.08161 H
atom 2.55956 5.32993 0.01499 H
atom 1.45770 5.02600 -1.18031 H
atom 1.13651 3.74374 2.89496 O
atom 1.57784 5.84018 2.41895 O
atom 3.82686 1.43234 4.70395 C
atom 4.10827 1.20218 3.24538 C
atom 5.09085 1.58654 3.01247 H
atom 4.08130 0.13475 3.04036 H
atom 3.09919 1.85646 2.42565 N
atom 2.24614 1.31592 2.46638 H
atom 2.91492 2.78841 2.77554 H
atom 3.40115 1.88697 1.45874 H
atom 3.98464 0.45537 5.46359 O
atom 3.40898 2.54425 5.09198 O

crossed_geometry: 
lattice_vector 6.463902 0.0 0.0
lattice_vector 3.30439220398e-16 6.463902 0.0
lattice_vector -0.495178511818 2.65849157315e-16 4.6791132194
atom -1.22866 1.50979 2.09160 C
atom -1.56948 1.20535 0.66070 C
atom -1.28581 0.18248 0.42816 H
atom -2.63930 1.31859 0.52303 H
atom -0.85842 2.12711 -0.21415 N
atom -1.24140 3.05234 -0.08161 H
atom 0.12593 2.14860 0.01499 H
atom -0.97593 1.84466 -1.18031 H
atom -1.29713 0.56240 2.89496 O
atom -0.85579 2.65884 2.41895 O
atom 1.58799 2.65515 0.07266 C
atom 1.30638 1.21269 0.36677 C
atom 1.53405 1.01869 1.40426 H
atom 0.25596 0.99994 0.18382 H
atom 2.11838 0.37447 -0.49947 N
atom 1.73547 0.40590 -1.43346 H
atom 3.07158 0.71209 -0.51427 H
atom 2.08262 -0.58720 -0.18257 H
atom 0.60276 3.38278 -0.15524 O
atom 2.76759 3.06454 0.05378 O

Beginning mutation
Structure to be relaxed is not acceptable

Replica: cd5f05fc39
Beginning iteration
Beginning structure selection
Crossing structures: C:4_H:10_N:2_O:4/0/504537ac92 + C:4_H:10_N:2_O:4/0/5e59e45c79
Beginning crossover
geometries to cross: 
lattice_vector 6.463902 0.0 0.0
lattice_vector 3.30439220398e-16 6.463902 0.0
lattice_vector -0.495178511818 2.65849157315e-16 4.6791132194
atom -0.28161 1.53963 2.45692 C
atom -0.62209 0.09536 2.67476 C
atom -0.56218 -0.11556 3.73414 H
atom -1.63285 -0.10119 2.32911 H
atom 0.32257 -0.74686 1.95829 N
atom 0.33610 -0.51369 0.97661 H
atom 1.24288 -0.59525 2.34551 H
atom 0.06306 -1.72015 2.07125 H
atom -1.24127 2.31628 2.29894 O
atom 0.91445 1.90411 2.43328 O
atom 3.14818 4.18532 0.07266 C
atom 2.86656 2.74286 0.36677 C
atom 3.09423 2.54886 1.40426 H
atom 1.81614 2.53011 0.18382 H
atom 3.67856 1.90465 -0.49947 N
atom 3.29566 1.93607 -1.43346 H
atom 4.63177 2.24226 -0.51427 H
atom 3.64280 0.94297 -0.18257 H
atom 2.16294 4.91295 -0.15524 O
atom 4.32777 4.59471 0.05378 O

lattice_vector 4.946704 0.0 0.0
lattice_vector 3.39030913714e-16 4.946704 0.0
lattice_vector 3.25416086622e-16 -1.34965075484e-06 5.314448
atom 1.89493 -0.00870 1.78607 C
atom 2.34818 0.45279 0.44043 C
atom 1.55637 0.28869 -0.28470 H
atom 2.58533 1.50430 0.51464 H
atom 3.53869 -0.28385 0.03707 N
atom 4.28482 -0.15408 0.70998 H
atom 3.30807 -1.26855 -0.02782 H
atom 3.82030 0.03543 -0.87889 H
atom 0.74957 -0.49146 1.89031 O
atom 2.69926 0.15619 2.72618 O
atom 0.57842 2.77711 4.44328 C
atom 0.12518 2.31563 3.09764 C
atom 0.91699 2.47976 2.37250 H
atom -0.11194 1.26411 3.17183 H
atom -1.06535 3.05225 2.69429 N
atom -1.81147 2.92244 3.36720 H
atom -0.83476 4.03696 2.62943 H
atom -1.34695 2.73299 1.77833 H
atom 1.72379 3.25985 4.54753 O
atom -0.22591 2.61222 5.38339 O

crossed_geometry: 
lattice_vector 6.463902 0.0 0.0
lattice_vector 3.30439220398e-16 6.463902 0.0
lattice_vector -0.495178511818 2.65849157315e-16 4.6791132194
atom -1.84179 0.00946 2.45692 C
atom -2.18228 -1.43481 2.67476 C
atom -2.12237 -1.64573 3.73414 H
atom -3.19303 -1.63136 2.32911 H
atom -1.23762 -2.27704 1.95829 N
atom -1.22409 -2.04386 0.97661 H
atom -0.31730 -2.12542 2.34551 H
atom -1.49712 -3.25032 2.07125 H
atom -2.80145 0.78611 2.29894 O
atom -0.64573 0.37393 2.43328 O
atom 1.58799 2.65515 0.07266 C
atom 1.30638 1.21269 0.36677 C
atom 1.53405 1.01869 1.40426 H
atom 0.25596 0.99994 0.18382 H
atom 2.11838 0.37447 -0.49947 N
atom 1.73547 0.40590 -1.43346 H
atom 3.07158 0.71209 -0.51427 H
atom 2.08262 -0.58720 -0.18257 H
atom 0.60276 3.38278 -0.15524 O
atom 2.76759 3.06454 0.05378 O

Beginning mutation
Beginning relaxation
Newly relaxed structure is not acceptable

Replica: cd5f05fc39
Beginning iteration
Beginning structure selection
Crossing structures: C:4_H:10_N:2_O:4/0/504537ac92 + C:4_H:10_N:2_O:4/0/a91529895b
Beginning crossover
geometries to cross: 
lattice_vector 6.463902 0.0 0.0
lattice_vector 3.30439220398e-16 6.463902 0.0
lattice_vector -0.495178511818 2.65849157315e-16 4.6791132194
atom -0.28161 1.53963 2.45692 C
atom -0.62209 0.09536 2.67476 C
atom -0.56218 -0.11556 3.73414 H
atom -1.63285 -0.10119 2.32911 H
atom 0.32257 -0.74686 1.95829 N
atom 0.33610 -0.51369 0.97661 H
atom 1.24288 -0.59525 2.34551 H
atom 0.06306 -1.72015 2.07125 H
atom -1.24127 2.31628 2.29894 O
atom 0.91445 1.90411 2.43328 O
atom 3.14818 4.18532 0.07266 C
atom 2.86656 2.74286 0.36677 C
atom 3.09423 2.54886 1.40426 H
atom 1.81614 2.53011 0.18382 H
atom 3.67856 1.90465 -0.49947 N
atom 3.29566 1.93607 -1.43346 H
atom 4.63177 2.24226 -0.51427 H
atom 3.64280 0.94297 -0.18257 H
atom 2.16294 4.91295 -0.15524 O
atom 4.32777 4.59471 0.05378 O

lattice_vector 4.830373 0.0 0.0
lattice_vector 3.89601111244e-16 4.830373 0.0
lattice_vector 0.0483795758802 4.32335796539e-16 5.40837161911
atom 1.20497 4.69113 2.09160 C
atom 0.86416 4.38669 0.66070 C
atom 1.14782 3.36382 0.42816 H
atom -0.20567 4.49993 0.52303 H
atom 1.57521 5.30845 -0.21415 N
atom 1.19223 6.23368 -0.08161 H
atom 2.55956 5.32993 0.01499 H
atom 1.45770 5.02600 -1.18031 H
atom 1.13651 3.74374 2.89496 O
atom 1.57784 5.84018 2.41895 O
atom 3.82686 1.43234 4.70395 C
atom 4.10827 1.20218 3.24538 C
atom 5.09085 1.58654 3.01247 H
atom 4.08130 0.13475 3.04036 H
atom 3.09919 1.85646 2.42565 N
atom 2.24614 1.31592 2.46638 H
atom 2.91492 2.78841 2.77554 H
atom 3.40115 1.88697 1.45874 H
atom 3.98464 0.45537 5.46359 O
atom 3.40898 2.54425 5.09198 O

crossed_geometry: 
lattice_vector 6.463902 0.0 0.0
lattice_vector 3.30439220398e-16 6.463902 0.0
lattice_vector -0.495178511818 2.65849157315e-16 4.6791132194
atom -1.84179 0.00946 2.45692 C
atom -2.18228 -1.43481 2.67476 C
atom -2.12237 -1.64573 3.73414 H
atom -3.19303 -1.63136 2.32911 H
atom -1.23762 -2.27704 1.95829 N
atom -1.22409 -2.04386 0.97661 H
atom -0.31730 -2.12542 2.34551 H
atom -1.49712 -3.25032 2.07125 H
atom -2.80145 0.78611 2.29894 O
atom -0.64573 0.37393 2.43328 O
atom 1.58799 2.65515 0.07266 C
atom 1.30638 1.21269 0.36677 C
atom 1.53405 1.01869 1.40426 H
atom 0.25596 0.99994 0.18382 H
atom 2.11838 0.37447 -0.49947 N
atom 1.73547 0.40590 -1.43346 H
atom 3.07158 0.71209 -0.51427 H
atom 2.08262 -0.58720 -0.18257 H
atom 0.60276 3.38278 -0.15524 O
atom 2.76759 3.06454 0.05378 O

Beginning mutation
Structure to be relaxed is not acceptable

Replica: cd5f05fc39
Beginning iteration
Beginning structure selection
Crossing structures: C:4_H:10_N:2_O:4/0/a91529895b + C:4_H:10_N:2_O:4/0/504537ac92
Beginning crossover
Crossover failure

Replica: cd5f05fc39
Beginning iteration
Beginning structure selection
Crossing structures: C:4_H:10_N:2_O:4/0/504537ac92 + C:4_H:10_N:2_O:4/0/a91529895b
Beginning crossover
geometries to cross: 
lattice_vector 6.463902 0.0 0.0
lattice_vector 3.30439220398e-16 6.463902 0.0
lattice_vector -0.495178511818 2.65849157315e-16 4.6791132194
atom -0.28161 1.53963 2.45692 C
atom -0.62209 0.09536 2.67476 C
atom -0.56218 -0.11556 3.73414 H
atom -1.63285 -0.10119 2.32911 H
atom 0.32257 -0.74686 1.95829 N
atom 0.33610 -0.51369 0.97661 H
atom 1.24288 -0.59525 2.34551 H
atom 0.06306 -1.72015 2.07125 H
atom -1.24127 2.31628 2.29894 O
atom 0.91445 1.90411 2.43328 O
atom 3.14818 4.18532 0.07266 C
atom 2.86656 2.74286 0.36677 C
atom 3.09423 2.54886 1.40426 H
atom 1.81614 2.53011 0.18382 H
atom 3.67856 1.90465 -0.49947 N
atom 3.29566 1.93607 -1.43346 H
atom 4.63177 2.24226 -0.51427 H
atom 3.64280 0.94297 -0.18257 H
atom 2.16294 4.91295 -0.15524 O
atom 4.32777 4.59471 0.05378 O

lattice_vector 4.830373 0.0 0.0
lattice_vector 3.89601111244e-16 4.830373 0.0
lattice_vector 0.0483795758802 4.32335796539e-16 5.40837161911
atom 1.20497 4.69113 2.09160 C
atom 0.86416 4.38669 0.66070 C
atom 1.14782 3.36382 0.42816 H
atom -0.20567 4.49993 0.52303 H
atom 1.57521 5.30845 -0.21415 N
atom 1.19223 6.23368 -0.08161 H
atom 2.55956 5.32993 0.01499 H
atom 1.45770 5.02600 -1.18031 H
atom 1.13651 3.74374 2.89496 O
atom 1.57784 5.84018 2.41895 O
atom 3.82686 1.43234 4.70395 C
atom 4.10827 1.20218 3.24538 C
atom 5.09085 1.58654 3.01247 H
atom 4.08130 0.13475 3.04036 H
atom 3.09919 1.85646 2.42565 N
atom 2.24614 1.31592 2.46638 H
atom 2.91492 2.78841 2.77554 H
atom 3.40115 1.88697 1.45874 H
atom 3.98464 0.45537 5.46359 O
atom 3.40898 2.54425 5.09198 O

crossed_geometry: 
lattice_vector 5.91797972916 0.0 0.0
lattice_vector 3.49530242175e-16 5.93677656051 0.0
lattice_vector -0.0262422957118 4.09479831565e-16 5.30825605117
atom -1.84179 0.00946 2.45692 C
atom -2.18228 -1.43481 2.67476 C
atom -2.12237 -1.64573 3.73414 H
atom -3.19303 -1.63136 2.32911 H
atom -1.23762 -2.27704 1.95829 N
atom -1.22409 -2.04386 0.97661 H
atom -0.31730 -2.12542 2.34551 H
atom -1.49712 -3.25032 2.07125 H
atom -2.80145 0.78611 2.29894 O
atom -0.64573 0.37393 2.43328 O
atom 1.58799 2.65515 0.07266 C
atom 1.30638 1.21269 0.36677 C
atom 1.53405 1.01869 1.40426 H
atom 0.25596 0.99994 0.18382 H
atom 2.11838 0.37447 -0.49947 N
atom 1.73547 0.40590 -1.43346 H
atom 3.07158 0.71209 -0.51427 H
atom 2.08262 -0.58720 -0.18257 H
atom 0.60276 3.38278 -0.15524 O
atom 2.76759 3.06454 0.05378 O

Beginning mutation
Beginning relaxation
Newly relaxed structure is not acceptable

Replica: cd5f05fc39
Beginning iteration
Beginning structure selection
Crossing structures: C:4_H:10_N:2_O:4/0/a91529895b + C:4_H:10_N:2_O:4/0/504537ac92
Beginning crossover
geometries to cross: 
lattice_vector 4.830373 0.0 0.0
lattice_vector 3.89601111244e-16 4.830373 0.0
lattice_vector 0.0483795758802 4.32335796539e-16 5.40837161911
atom 1.20497 4.69113 2.09160 C
atom 0.86416 4.38669 0.66070 C
atom 1.14782 3.36382 0.42816 H
atom -0.20567 4.49993 0.52303 H
atom 1.57521 5.30845 -0.21415 N
atom 1.19223 6.23368 -0.08161 H
atom 2.55956 5.32993 0.01499 H
atom 1.45770 5.02600 -1.18031 H
atom 1.13651 3.74374 2.89496 O
atom 1.57784 5.84018 2.41895 O
atom 3.82686 1.43234 4.70395 C
atom 4.10827 1.20218 3.24538 C
atom 5.09085 1.58654 3.01247 H
atom 4.08130 0.13475 3.04036 H
atom 3.09919 1.85646 2.42565 N
atom 2.24614 1.31592 2.46638 H
atom 2.91492 2.78841 2.77554 H
atom 3.40115 1.88697 1.45874 H
atom 3.98464 0.45537 5.46359 O
atom 3.40898 2.54425 5.09198 O

lattice_vector 6.463902 0.0 0.0
lattice_vector 3.30439220398e-16 6.463902 0.0
lattice_vector -0.495178511818 2.65849157315e-16 4.6791132194
atom -0.28161 1.53963 2.45692 C
atom -0.62209 0.09536 2.67476 C
atom -0.56218 -0.11556 3.73414 H
atom -1.63285 -0.10119 2.32911 H
atom 0.32257 -0.74686 1.95829 N
atom 0.33610 -0.51369 0.97661 H
atom 1.24288 -0.59525 2.34551 H
atom 0.06306 -1.72015 2.07125 H
atom -1.24127 2.31628 2.29894 O
atom 0.91445 1.90411 2.43328 O
atom 3.14818 4.18532 0.07266 C
atom 2.86656 2.74286 0.36677 C
atom 3.09423 2.54886 1.40426 H
atom 1.81614 2.53011 0.18382 H
atom 3.67856 1.90465 -0.49947 N
atom 3.29566 1.93607 -1.43346 H
atom 4.63177 2.24226 -0.51427 H
atom 3.64280 0.94297 -0.18257 H
atom 2.16294 4.91295 -0.15524 O
atom 4.32777 4.59471 0.05378 O

crossed_geometry: 
lattice_vector 4.830373 0.0 0.0
lattice_vector 3.89601111244e-16 4.830373 0.0
lattice_vector 0.0483795758802 4.32335796539e-16 5.40837161911
atom -1.22866 1.50979 2.09160 C
atom -1.56948 1.20535 0.66070 C
atom -1.28581 0.18248 0.42816 H
atom -2.63930 1.31859 0.52303 H
atom -0.85842 2.12711 -0.21415 N
atom -1.24140 3.05234 -0.08161 H
atom 0.12593 2.14860 0.01499 H
atom -0.97593 1.84466 -1.18031 H
atom -1.29713 0.56240 2.89496 O
atom -0.85579 2.65884 2.41895 O
atom 1.58799 2.65515 0.07266 C
atom 1.30638 1.21269 0.36677 C
atom 1.53405 1.01869 1.40426 H
atom 0.25596 0.99994 0.18382 H
atom 2.11838 0.37447 -0.49947 N
atom 1.73547 0.40590 -1.43346 H
atom 3.07158 0.71209 -0.51427 H
atom 2.08262 -0.58720 -0.18257 H
atom 0.60276 3.38278 -0.15524 O
atom 2.76759 3.06454 0.05378 O

Beginning mutation
Structure to be relaxed is not acceptable

Replica: cd5f05fc39
Beginning iteration
Beginning structure selection
Crossing structures: C:4_H:10_N:2_O:4/0/504537ac92 + C:4_H:10_N:2_O:4/0/a91529895b
Beginning crossover
geometries to cross: 
lattice_vector 6.463902 0.0 0.0
lattice_vector 3.30439220398e-16 6.463902 0.0
lattice_vector -0.495178511818 2.65849157315e-16 4.6791132194
atom -0.28161 1.53963 2.45692 C
atom -0.62209 0.09536 2.67476 C
atom -0.56218 -0.11556 3.73414 H
atom -1.63285 -0.10119 2.32911 H
atom 0.32257 -0.74686 1.95829 N
atom 0.33610 -0.51369 0.97661 H
atom 1.24288 -0.59525 2.34551 H
atom 0.06306 -1.72015 2.07125 H
atom -1.24127 2.31628 2.29894 O
atom 0.91445 1.90411 2.43328 O
atom 3.14818 4.18532 0.07266 C
atom 2.86656 2.74286 0.36677 C
atom 3.09423 2.54886 1.40426 H
atom 1.81614 2.53011 0.18382 H
atom 3.67856 1.90465 -0.49947 N
atom 3.29566 1.93607 -1.43346 H
atom 4.63177 2.24226 -0.51427 H
atom 3.64280 0.94297 -0.18257 H
atom 2.16294 4.91295 -0.15524 O
atom 4.32777 4.59471 0.05378 O

lattice_vector 4.830373 0.0 0.0
lattice_vector 3.89601111244e-16 4.830373 0.0
lattice_vector 0.0483795758802 4.32335796539e-16 5.40837161911
atom 1.20497 4.69113 2.09160 C
atom 0.86416 4.38669 0.66070 C
atom 1.14782 3.36382 0.42816 H
atom -0.20567 4.49993 0.52303 H
atom 1.57521 5.30845 -0.21415 N
atom 1.19223 6.23368 -0.08161 H
atom 2.55956 5.32993 0.01499 H
atom 1.45770 5.02600 -1.18031 H
atom 1.13651 3.74374 2.89496 O
atom 1.57784 5.84018 2.41895 O
atom 3.82686 1.43234 4.70395 C
atom 4.10827 1.20218 3.24538 C
atom 5.09085 1.58654 3.01247 H
atom 4.08130 0.13475 3.04036 H
atom 3.09919 1.85646 2.42565 N
atom 2.24614 1.31592 2.46638 H
atom 2.91492 2.78841 2.77554 H
atom 3.40115 1.88697 1.45874 H
atom 3.98464 0.45537 5.46359 O
atom 3.40898 2.54425 5.09198 O

crossed_geometry: 
lattice_vector 4.830373 0.0 0.0
lattice_vector 3.89601111244e-16 4.830373 0.0
lattice_vector 0.0483795758802 4.32335796539e-16 5.40837161911
atom -1.84179 0.00946 2.45692 C
atom -2.18228 -1.43481 2.67476 C
atom -2.12237 -1.64573 3.73414 H
atom -3.19303 -1.63136 2.32911 H
atom -1.23762 -2.27704 1.95829 N
atom -1.22409 -2.04386 0.97661 H
atom -0.31730 -2.12542 2.34551 H
atom -1.49712 -3.25032 2.07125 H
atom -2.80145 0.78611 2.29894 O
atom -0.64573 0.37393 2.43328 O
atom 1.58799 2.65515 0.07266 C
atom 1.30638 1.21269 0.36677 C
atom 1.53405 1.01869 1.40426 H
atom 0.25596 0.99994 0.18382 H
atom 2.11838 0.37447 -0.49947 N
atom 1.73547 0.40590 -1.43346 H
atom 3.07158 0.71209 -0.51427 H
atom 2.08262 -0.58720 -0.18257 H
atom 0.60276 3.38278 -0.15524 O
atom 2.76759 3.06454 0.05378 O

Beginning mutation
Structure to be relaxed is not acceptable

Replica: cd5f05fc39
Beginning iteration
Beginning structure selection
Crossing structures: C:4_H:10_N:2_O:4/0/a91529895b + C:4_H:10_N:2_O:4/0/504537ac92
Beginning crossover
geometries to cross: 
lattice_vector 4.830373 0.0 0.0
lattice_vector 3.89601111244e-16 4.830373 0.0
lattice_vector 0.0483795758802 4.32335796539e-16 5.40837161911
atom 1.20497 4.69113 2.09160 C
atom 0.86416 4.38669 0.66070 C
atom 1.14782 3.36382 0.42816 H
atom -0.20567 4.49993 0.52303 H
atom 1.57521 5.30845 -0.21415 N
atom 1.19223 6.23368 -0.08161 H
atom 2.55956 5.32993 0.01499 H
atom 1.45770 5.02600 -1.18031 H
atom 1.13651 3.74374 2.89496 O
atom 1.57784 5.84018 2.41895 O
atom 3.82686 1.43234 4.70395 C
atom 4.10827 1.20218 3.24538 C
atom 5.09085 1.58654 3.01247 H
atom 4.08130 0.13475 3.04036 H
atom 3.09919 1.85646 2.42565 N
atom 2.24614 1.31592 2.46638 H
atom 2.91492 2.78841 2.77554 H
atom 3.40115 1.88697 1.45874 H
atom 3.98464 0.45537 5.46359 O
atom 3.40898 2.54425 5.09198 O

lattice_vector 6.463902 0.0 0.0
lattice_vector 3.30439220398e-16 6.463902 0.0
lattice_vector -0.495178511818 2.65849157315e-16 4.6791132194
atom -0.28161 1.53963 2.45692 C
atom -0.62209 0.09536 2.67476 C
atom -0.56218 -0.11556 3.73414 H
atom -1.63285 -0.10119 2.32911 H
atom 0.32257 -0.74686 1.95829 N
atom 0.33610 -0.51369 0.97661 H
atom 1.24288 -0.59525 2.34551 H
atom 0.06306 -1.72015 2.07125 H
atom -1.24127 2.31628 2.29894 O
atom 0.91445 1.90411 2.43328 O
atom 3.14818 4.18532 0.07266 C
atom 2.86656 2.74286 0.36677 C
atom 3.09423 2.54886 1.40426 H
atom 1.81614 2.53011 0.18382 H
atom 3.67856 1.90465 -0.49947 N
atom 3.29566 1.93607 -1.43346 H
atom 4.63177 2.24226 -0.51427 H
atom 3.64280 0.94297 -0.18257 H
atom 2.16294 4.91295 -0.15524 O
atom 4.32777 4.59471 0.05378 O

crossed_geometry: 
lattice_vector 6.463902 0.0 0.0
lattice_vector 3.30439220398e-16 6.463902 0.0
lattice_vector -0.495178511818 2.65849157315e-16 4.6791132194
atom -1.84179 0.00946 2.45692 C
atom -2.18228 -1.43481 2.67476 C
atom -2.12237 -1.64573 3.73414 H
atom -3.19303 -1.63136 2.32911 H
atom -1.23762 -2.27704 1.95829 N
atom -1.22409 -2.04386 0.97661 H
atom -0.31730 -2.12542 2.34551 H
atom -1.49712 -3.25032 2.07125 H
atom -2.80145 0.78611 2.29894 O
atom -0.64573 0.37393 2.43328 O
atom 1.58799 2.65515 0.07266 C
atom 1.30638 1.21269 0.36677 C
atom 1.53405 1.01869 1.40426 H
atom 0.25596 0.99994 0.18382 H
atom 2.11838 0.37447 -0.49947 N
atom 1.73547 0.40590 -1.43346 H
atom 3.07158 0.71209 -0.51427 H
atom 2.08262 -0.58720 -0.18257 H
atom 0.60276 3.38278 -0.15524 O
atom 2.76759 3.06454 0.05378 O

Beginning mutation
Structure to be relaxed is not acceptable

Replica: cd5f05fc39
Beginning iteration
Beginning structure selection
Crossing structures: C:4_H:10_N:2_O:4/0/a91529895b + C:4_H:10_N:2_O:4/0/504537ac92
Beginning crossover
geometries to cross: 
lattice_vector 4.830373 0.0 0.0
lattice_vector 3.89601111244e-16 4.830373 0.0
lattice_vector 0.0483795758802 4.32335796539e-16 5.40837161911
atom 1.20497 4.69113 2.09160 C
atom 0.86416 4.38669 0.66070 C
atom 1.14782 3.36382 0.42816 H
atom -0.20567 4.49993 0.52303 H
atom 1.57521 5.30845 -0.21415 N
atom 1.19223 6.23368 -0.08161 H
atom 2.55956 5.32993 0.01499 H
atom 1.45770 5.02600 -1.18031 H
atom 1.13651 3.74374 2.89496 O
atom 1.57784 5.84018 2.41895 O
atom 3.82686 1.43234 4.70395 C
atom 4.10827 1.20218 3.24538 C
atom 5.09085 1.58654 3.01247 H
atom 4.08130 0.13475 3.04036 H
atom 3.09919 1.85646 2.42565 N
atom 2.24614 1.31592 2.46638 H
atom 2.91492 2.78841 2.77554 H
atom 3.40115 1.88697 1.45874 H
atom 3.98464 0.45537 5.46359 O
atom 3.40898 2.54425 5.09198 O

lattice_vector 6.463902 0.0 0.0
lattice_vector 3.30439220398e-16 6.463902 0.0
lattice_vector -0.495178511818 2.65849157315e-16 4.6791132194
atom -0.28161 1.53963 2.45692 C
atom -0.62209 0.09536 2.67476 C
atom -0.56218 -0.11556 3.73414 H
atom -1.63285 -0.10119 2.32911 H
atom 0.32257 -0.74686 1.95829 N
atom 0.33610 -0.51369 0.97661 H
atom 1.24288 -0.59525 2.34551 H
atom 0.06306 -1.72015 2.07125 H
atom -1.24127 2.31628 2.29894 O
atom 0.91445 1.90411 2.43328 O
atom 3.14818 4.18532 0.07266 C
atom 2.86656 2.74286 0.36677 C
atom 3.09423 2.54886 1.40426 H
atom 1.81614 2.53011 0.18382 H
atom 3.67856 1.90465 -0.49947 N
atom 3.29566 1.93607 -1.43346 H
atom 4.63177 2.24226 -0.51427 H
atom 3.64280 0.94297 -0.18257 H
atom 2.16294 4.91295 -0.15524 O
atom 4.32777 4.59471 0.05378 O

crossed_geometry: 
lattice_vector 5.61860375404 0.0 0.0
lattice_vector 3.47358810117e-16 5.99673233928 0.0
lattice_vector -0.137865994803 3.75290561016e-16 5.15849741081
atom -1.22866 1.50979 2.09160 C
atom -1.56948 1.20535 0.66070 C
atom -1.28581 0.18248 0.42816 H
atom -2.63930 1.31859 0.52303 H
atom -0.85842 2.12711 -0.21415 N
atom -1.24140 3.05234 -0.08161 H
atom 0.12593 2.14860 0.01499 H
atom -0.97593 1.84466 -1.18031 H
atom -1.29713 0.56240 2.89496 O
atom -0.85579 2.65884 2.41895 O
atom 1.58799 2.65515 0.07266 C
atom 1.30638 1.21269 0.36677 C
atom 1.53405 1.01869 1.40426 H
atom 0.25596 0.99994 0.18382 H
atom 2.11838 0.37447 -0.49947 N
atom 1.73547 0.40590 -1.43346 H
atom 3.07158 0.71209 -0.51427 H
atom 2.08262 -0.58720 -0.18257 H
atom 0.60276 3.38278 -0.15524 O
atom 2.76759 3.06454 0.05378 O

Beginning mutation
Beginning relaxation
Newly relaxed structure is not acceptable

Replica: cd5f05fc39
Beginning iteration
Beginning structure selection
Crossing structures: C:4_H:10_N:2_O:4/0/a91529895b + C:4_H:10_N:2_O:4/0/5e59e45c79
Beginning crossover
Crossover failure

Replica: cd5f05fc39
Beginning iteration
Beginning structure selection
Crossing structures: C:4_H:10_N:2_O:4/0/504537ac92 + C:4_H:10_N:2_O:4/0/a91529895b
Beginning crossover
geometries to cross: 
lattice_vector 6.463902 0.0 0.0
lattice_vector 3.30439220398e-16 6.463902 0.0
lattice_vector -0.495178511818 2.65849157315e-16 4.6791132194
atom -0.28161 1.53963 2.45692 C
atom -0.62209 0.09536 2.67476 C
atom -0.56218 -0.11556 3.73414 H
atom -1.63285 -0.10119 2.32911 H
atom 0.32257 -0.74686 1.95829 N
atom 0.33610 -0.51369 0.97661 H
atom 1.24288 -0.59525 2.34551 H
atom 0.06306 -1.72015 2.07125 H
atom -1.24127 2.31628 2.29894 O
atom 0.91445 1.90411 2.43328 O
atom 3.14818 4.18532 0.07266 C
atom 2.86656 2.74286 0.36677 C
atom 3.09423 2.54886 1.40426 H
atom 1.81614 2.53011 0.18382 H
atom 3.67856 1.90465 -0.49947 N
atom 3.29566 1.93607 -1.43346 H
atom 4.63177 2.24226 -0.51427 H
atom 3.64280 0.94297 -0.18257 H
atom 2.16294 4.91295 -0.15524 O
atom 4.32777 4.59471 0.05378 O

lattice_vector 4.830373 0.0 0.0
lattice_vector 3.89601111244e-16 4.830373 0.0
lattice_vector 0.0483795758802 4.32335796539e-16 5.40837161911
atom 1.20497 4.69113 2.09160 C
atom 0.86416 4.38669 0.66070 C
atom 1.14782 3.36382 0.42816 H
atom -0.20567 4.49993 0.52303 H
atom 1.57521 5.30845 -0.21415 N
atom 1.19223 6.23368 -0.08161 H
atom 2.55956 5.32993 0.01499 H
atom 1.45770 5.02600 -1.18031 H
atom 1.13651 3.74374 2.89496 O
atom 1.57784 5.84018 2.41895 O
atom 3.82686 1.43234 4.70395 C
atom 4.10827 1.20218 3.24538 C
atom 5.09085 1.58654 3.01247 H
atom 4.08130 0.13475 3.04036 H
atom 3.09919 1.85646 2.42565 N
atom 2.24614 1.31592 2.46638 H
atom 2.91492 2.78841 2.77554 H
atom 3.40115 1.88697 1.45874 H
atom 3.98464 0.45537 5.46359 O
atom 3.40898 2.54425 5.09198 O

crossed_geometry: 
lattice_vector 6.463902 0.0 0.0
lattice_vector 3.30439220398e-16 6.463902 0.0
lattice_vector -0.495178511818 2.65849157315e-16 4.6791132194
atom -1.84179 0.00946 2.45692 C
atom -2.18228 -1.43481 2.67476 C
atom -2.12237 -1.64573 3.73414 H
atom -3.19303 -1.63136 2.32911 H
atom -1.23762 -2.27704 1.95829 N
atom -1.22409 -2.04386 0.97661 H
atom -0.31730 -2.12542 2.34551 H
atom -1.49712 -3.25032 2.07125 H
atom -2.80145 0.78611 2.29894 O
atom -0.64573 0.37393 2.43328 O
atom 1.58799 2.65515 0.07266 C
atom 1.30638 1.21269 0.36677 C
atom 1.53405 1.01869 1.40426 H
atom 0.25596 0.99994 0.18382 H
atom 2.11838 0.37447 -0.49947 N
atom 1.73547 0.40590 -1.43346 H
atom 3.07158 0.71209 -0.51427 H
atom 2.08262 -0.58720 -0.18257 H
atom 0.60276 3.38278 -0.15524 O
atom 2.76759 3.06454 0.05378 O

Beginning mutation
Structure to be relaxed is not acceptable

Replica: cd5f05fc39
Beginning iteration
Beginning structure selection
Crossing structures: C:4_H:10_N:2_O:4/0/504537ac92 + C:4_H:10_N:2_O:4/0/a91529895b
Beginning crossover
Crossover failure

Replica: cd5f05fc39
Beginning iteration
Beginning structure selection
Crossing structures: C:4_H:10_N:2_O:4/0/a91529895b + C:4_H:10_N:2_O:4/0/504537ac92
Beginning crossover
Crossover failure

Replica: cd5f05fc39
Beginning iteration
Beginning structure selection
Crossing structures: C:4_H:10_N:2_O:4/0/a91529895b + C:4_H:10_N:2_O:4/0/504537ac92
Beginning crossover
geometries to cross: 
lattice_vector 4.830373 0.0 0.0
lattice_vector 3.89601111244e-16 4.830373 0.0
lattice_vector 0.0483795758802 4.32335796539e-16 5.40837161911
atom 1.20497 4.69113 2.09160 C
atom 0.86416 4.38669 0.66070 C
atom 1.14782 3.36382 0.42816 H
atom -0.20567 4.49993 0.52303 H
atom 1.57521 5.30845 -0.21415 N
atom 1.19223 6.23368 -0.08161 H
atom 2.55956 5.32993 0.01499 H
atom 1.45770 5.02600 -1.18031 H
atom 1.13651 3.74374 2.89496 O
atom 1.57784 5.84018 2.41895 O
atom 3.82686 1.43234 4.70395 C
atom 4.10827 1.20218 3.24538 C
atom 5.09085 1.58654 3.01247 H
atom 4.08130 0.13475 3.04036 H
atom 3.09919 1.85646 2.42565 N
atom 2.24614 1.31592 2.46638 H
atom 2.91492 2.78841 2.77554 H
atom 3.40115 1.88697 1.45874 H
atom 3.98464 0.45537 5.46359 O
atom 3.40898 2.54425 5.09198 O

lattice_vector 6.463902 0.0 0.0
lattice_vector 3.30439220398e-16 6.463902 0.0
lattice_vector -0.495178511818 2.65849157315e-16 4.6791132194
atom -0.28161 1.53963 2.45692 C
atom -0.62209 0.09536 2.67476 C
atom -0.56218 -0.11556 3.73414 H
atom -1.63285 -0.10119 2.32911 H
atom 0.32257 -0.74686 1.95829 N
atom 0.33610 -0.51369 0.97661 H
atom 1.24288 -0.59525 2.34551 H
atom 0.06306 -1.72015 2.07125 H
atom -1.24127 2.31628 2.29894 O
atom 0.91445 1.90411 2.43328 O
atom 3.14818 4.18532 0.07266 C
atom 2.86656 2.74286 0.36677 C
atom 3.09423 2.54886 1.40426 H
atom 1.81614 2.53011 0.18382 H
atom 3.67856 1.90465 -0.49947 N
atom 3.29566 1.93607 -1.43346 H
atom 4.63177 2.24226 -0.51427 H
atom 3.64280 0.94297 -0.18257 H
atom 2.16294 4.91295 -0.15524 O
atom 4.32777 4.59471 0.05378 O

crossed_geometry: 
lattice_vector 4.830373 0.0 0.0
lattice_vector 3.89601111244e-16 4.830373 0.0
lattice_vector 0.0483795758802 4.32335796539e-16 5.40837161911
atom -1.84179 0.00946 2.45692 C
atom -2.18228 -1.43481 2.67476 C
atom -2.12237 -1.64573 3.73414 H
atom -3.19303 -1.63136 2.32911 H
atom -1.23762 -2.27704 1.95829 N
atom -1.22409 -2.04386 0.97661 H
atom -0.31730 -2.12542 2.34551 H
atom -1.49712 -3.25032 2.07125 H
atom -2.80145 0.78611 2.29894 O
atom -0.64573 0.37393 2.43328 O
atom 1.58799 2.65515 0.07266 C
atom 1.30638 1.21269 0.36677 C
atom 1.53405 1.01869 1.40426 H
atom 0.25596 0.99994 0.18382 H
atom 2.11838 0.37447 -0.49947 N
atom 1.73547 0.40590 -1.43346 H
atom 3.07158 0.71209 -0.51427 H
atom 2.08262 -0.58720 -0.18257 H
atom 0.60276 3.38278 -0.15524 O
atom 2.76759 3.06454 0.05378 O

Beginning mutation
Structure to be relaxed is not acceptable

Replica: cd5f05fc39
Beginning iteration
Beginning structure selection
Crossing structures: C:4_H:10_N:2_O:4/0/a91529895b + C:4_H:10_N:2_O:4/0/504537ac92
Beginning crossover
geometries to cross: 
lattice_vector 4.830373 0.0 0.0
lattice_vector 3.89601111244e-16 4.830373 0.0
lattice_vector 0.0483795758802 4.32335796539e-16 5.40837161911
atom 1.20497 4.69113 2.09160 C
atom 0.86416 4.38669 0.66070 C
atom 1.14782 3.36382 0.42816 H
atom -0.20567 4.49993 0.52303 H
atom 1.57521 5.30845 -0.21415 N
atom 1.19223 6.23368 -0.08161 H
atom 2.55956 5.32993 0.01499 H
atom 1.45770 5.02600 -1.18031 H
atom 1.13651 3.74374 2.89496 O
atom 1.57784 5.84018 2.41895 O
atom 3.82686 1.43234 4.70395 C
atom 4.10827 1.20218 3.24538 C
atom 5.09085 1.58654 3.01247 H
atom 4.08130 0.13475 3.04036 H
atom 3.09919 1.85646 2.42565 N
atom 2.24614 1.31592 2.46638 H
atom 2.91492 2.78841 2.77554 H
atom 3.40115 1.88697 1.45874 H
atom 3.98464 0.45537 5.46359 O
atom 3.40898 2.54425 5.09198 O

lattice_vector 6.463902 0.0 0.0
lattice_vector 3.30439220398e-16 6.463902 0.0
lattice_vector -0.495178511818 2.65849157315e-16 4.6791132194
atom -0.28161 1.53963 2.45692 C
atom -0.62209 0.09536 2.67476 C
atom -0.56218 -0.11556 3.73414 H
atom -1.63285 -0.10119 2.32911 H
atom 0.32257 -0.74686 1.95829 N
atom 0.33610 -0.51369 0.97661 H
atom 1.24288 -0.59525 2.34551 H
atom 0.06306 -1.72015 2.07125 H
atom -1.24127 2.31628 2.29894 O
atom 0.91445 1.90411 2.43328 O
atom 3.14818 4.18532 0.07266 C
atom 2.86656 2.74286 0.36677 C
atom 3.09423 2.54886 1.40426 H
atom 1.81614 2.53011 0.18382 H
atom 3.67856 1.90465 -0.49947 N
atom 3.29566 1.93607 -1.43346 H
atom 4.63177 2.24226 -0.51427 H
atom 3.64280 0.94297 -0.18257 H
atom 2.16294 4.91295 -0.15524 O
atom 4.32777 4.59471 0.05378 O

crossed_geometry: 
lattice_vector 4.830373 0.0 0.0
lattice_vector 3.89601111244e-16 4.830373 0.0
lattice_vector 0.0483795758802 4.32335796539e-16 5.40837161911
atom -1.84179 0.00946 2.45692 C
atom -2.18228 -1.43481 2.67476 C
atom -2.12237 -1.64573 3.73414 H
atom -3.19303 -1.63136 2.32911 H
atom -1.23762 -2.27704 1.95829 N
atom -1.22409 -2.04386 0.97661 H
atom -0.31730 -2.12542 2.34551 H
atom -1.49712 -3.25032 2.07125 H
atom -2.80145 0.78611 2.29894 O
atom -0.64573 0.37393 2.43328 O
atom 1.58799 2.65515 0.07266 C
atom 1.30638 1.21269 0.36677 C
atom 1.53405 1.01869 1.40426 H
atom 0.25596 0.99994 0.18382 H
atom 2.11838 0.37447 -0.49947 N
atom 1.73547 0.40590 -1.43346 H
atom 3.07158 0.71209 -0.51427 H
atom 2.08262 -0.58720 -0.18257 H
atom 0.60276 3.38278 -0.15524 O
atom 2.76759 3.06454 0.05378 O

Beginning mutation
Structure to be relaxed is not acceptable

Replica: cd5f05fc39
Beginning iteration
Beginning structure selection
Crossing structures: C:4_H:10_N:2_O:4/0/504537ac92 + C:4_H:10_N:2_O:4/0/a91529895b
Beginning crossover
geometries to cross: 
lattice_vector 6.463902 0.0 0.0
lattice_vector 3.30439220398e-16 6.463902 0.0
lattice_vector -0.495178511818 2.65849157315e-16 4.6791132194
atom -0.28161 1.53963 2.45692 C
atom -0.62209 0.09536 2.67476 C
atom -0.56218 -0.11556 3.73414 H
atom -1.63285 -0.10119 2.32911 H
atom 0.32257 -0.74686 1.95829 N
atom 0.33610 -0.51369 0.97661 H
atom 1.24288 -0.59525 2.34551 H
atom 0.06306 -1.72015 2.07125 H
atom -1.24127 2.31628 2.29894 O
atom 0.91445 1.90411 2.43328 O
atom 3.14818 4.18532 0.07266 C
atom 2.86656 2.74286 0.36677 C
atom 3.09423 2.54886 1.40426 H
atom 1.81614 2.53011 0.18382 H
atom 3.67856 1.90465 -0.49947 N
atom 3.29566 1.93607 -1.43346 H
atom 4.63177 2.24226 -0.51427 H
atom 3.64280 0.94297 -0.18257 H
atom 2.16294 4.91295 -0.15524 O
atom 4.32777 4.59471 0.05378 O

lattice_vector 4.830373 0.0 0.0
lattice_vector 3.89601111244e-16 4.830373 0.0
lattice_vector 0.0483795758802 4.32335796539e-16 5.40837161911
atom 1.20497 4.69113 2.09160 C
atom 0.86416 4.38669 0.66070 C
atom 1.14782 3.36382 0.42816 H
atom -0.20567 4.49993 0.52303 H
atom 1.57521 5.30845 -0.21415 N
atom 1.19223 6.23368 -0.08161 H
atom 2.55956 5.32993 0.01499 H
atom 1.45770 5.02600 -1.18031 H
atom 1.13651 3.74374 2.89496 O
atom 1.57784 5.84018 2.41895 O
atom 3.82686 1.43234 4.70395 C
atom 4.10827 1.20218 3.24538 C
atom 5.09085 1.58654 3.01247 H
atom 4.08130 0.13475 3.04036 H
atom 3.09919 1.85646 2.42565 N
atom 2.24614 1.31592 2.46638 H
atom 2.91492 2.78841 2.77554 H
atom 3.40115 1.88697 1.45874 H
atom 3.98464 0.45537 5.46359 O
atom 3.40898 2.54425 5.09198 O

crossed_geometry: 
lattice_vector 6.463902 0.0 0.0
lattice_vector 3.30439220398e-16 6.463902 0.0
lattice_vector -0.495178511818 2.65849157315e-16 4.6791132194
atom -1.22866 1.50979 2.09160 C
atom -1.56948 1.20535 0.66070 C
atom -1.28581 0.18248 0.42816 H
atom -2.63930 1.31859 0.52303 H
atom -0.85842 2.12711 -0.21415 N
atom -1.24140 3.05234 -0.08161 H
atom 0.12593 2.14860 0.01499 H
atom -0.97593 1.84466 -1.18031 H
atom -1.29713 0.56240 2.89496 O
atom -0.85579 2.65884 2.41895 O
atom 1.39323 -1.74899 4.70395 C
atom 1.67464 -1.97915 3.24538 C
atom 2.65721 -1.59480 3.01247 H
atom 1.64766 -3.04658 3.04036 H
atom 0.66556 -1.32487 2.42565 N
atom -0.18749 -1.86542 2.46638 H
atom 0.48129 -0.39292 2.77554 H
atom 0.96752 -1.29436 1.45874 H
atom 1.55100 -2.72597 5.46359 O
atom 0.97535 -0.63709 5.09198 O

Beginning mutation
Beginning relaxation
Success: 
  stoichiometry-- C:4_H:10_N:2_O:4
  cascade-- 0
  structure index-- ddfa0bbd69
  child count-- 1
  collection count -- 4
  replica-- cd5f05fc39
Iteration time: -- 0:00:22.266597

Replica: cd5f05fc39
Beginning iteration
Beginning structure selection
Crossing structures: C:4_H:10_N:2_O:4/0/ddfa0bbd69 + C:4_H:10_N:2_O:4/0/504537ac92
Beginning crossover
geometries to cross: 
lattice_vector 4.75877 0.0 0.0
lattice_vector 0.032416424561 4.75870826493 0.0
lattice_vector 0.0137603096593 -1.29525629254 5.26638739235
atom -1.02745 0.82460 3.09027 C
atom -1.42983 0.87616 1.64432 C
atom -1.27731 -0.10077 1.19873 H
atom -2.48096 1.13435 1.59226 H
atom -0.63908 1.88308 0.93534 N
atom -0.87593 2.79999 1.28408 H
atom 0.34759 1.72620 1.07677 H
atom -0.84228 1.85297 -0.05606 H
atom -1.25311 -0.21647 3.74385 O
atom -0.49861 1.83681 3.59449 O
atom 1.49691 -2.82506 5.75363 C
atom 1.88249 -2.79134 4.30269 C
atom 2.93855 -2.55822 4.23441 H
atom 1.70178 -3.76723 3.86609 H
atom 1.10814 -1.76969 3.59731 N
atom 1.24645 -1.85310 2.59773 H
atom 0.12416 -1.85670 3.80485 H
atom 1.42225 -0.85571 3.88930 H
atom 1.70388 -3.86954 6.40786 O
atom 0.99117 -1.80064 6.25770 O

lattice_vector 6.463902 0.0 0.0
lattice_vector 3.30439220398e-16 6.463902 0.0
lattice_vector -0.495178511818 2.65849157315e-16 4.6791132194
atom -0.28161 1.53963 2.45692 C
atom -0.62209 0.09536 2.67476 C
atom -0.56218 -0.11556 3.73414 H
atom -1.63285 -0.10119 2.32911 H
atom 0.32257 -0.74686 1.95829 N
atom 0.33610 -0.51369 0.97661 H
atom 1.24288 -0.59525 2.34551 H
atom 0.06306 -1.72015 2.07125 H
atom -1.24127 2.31628 2.29894 O
atom 0.91445 1.90411 2.43328 O
atom 3.14818 4.18532 0.07266 C
atom 2.86656 2.74286 0.36677 C
atom 3.09423 2.54886 1.40426 H
atom 1.81614 2.53011 0.18382 H
atom 3.67856 1.90465 -0.49947 N
atom 3.29566 1.93607 -1.43346 H
atom 4.63177 2.24226 -0.51427 H
atom 3.64280 0.94297 -0.18257 H
atom 2.16294 4.91295 -0.15524 O
atom 4.32777 4.59471 0.05378 O

crossed_geometry: 
lattice_vector 6.463902 0.0 0.0
lattice_vector 3.30439220398e-16 6.463902 0.0
lattice_vector -0.495178511818 2.65849157315e-16 4.6791132194
atom -1.84179 0.00946 2.45692 C
atom -2.18228 -1.43481 2.67476 C
atom -2.12237 -1.64573 3.73414 H
atom -3.19303 -1.63136 2.32911 H
atom -1.23762 -2.27704 1.95829 N
atom -1.22409 -2.04386 0.97661 H
atom -0.31730 -2.12542 2.34551 H
atom -1.49712 -3.25032 2.07125 H
atom -2.80145 0.78611 2.29894 O
atom -0.64573 0.37393 2.43328 O
atom 1.58799 2.65515 0.07266 C
atom 1.30638 1.21269 0.36677 C
atom 1.53405 1.01869 1.40426 H
atom 0.25596 0.99994 0.18382 H
atom 2.11838 0.37447 -0.49947 N
atom 1.73547 0.40590 -1.43346 H
atom 3.07158 0.71209 -0.51427 H
atom 2.08262 -0.58720 -0.18257 H
atom 0.60276 3.38278 -0.15524 O
atom 2.76759 3.06454 0.05378 O

Beginning mutation
Structure to be relaxed is not acceptable

Replica: cd5f05fc39
Beginning iteration
Beginning structure selection
Crossing structures: C:4_H:10_N:2_O:4/0/5e59e45c79 + C:4_H:10_N:2_O:4/0/a91529895b
Beginning crossover
geometries to cross: 
lattice_vector 4.946704 0.0 0.0
lattice_vector 3.39030913714e-16 4.946704 0.0
lattice_vector 3.25416086622e-16 -1.34965075484e-06 5.314448
atom 1.89493 -0.00870 1.78607 C
atom 2.34818 0.45279 0.44043 C
atom 1.55637 0.28869 -0.28470 H
atom 2.58533 1.50430 0.51464 H
atom 3.53869 -0.28385 0.03707 N
atom 4.28482 -0.15408 0.70998 H
atom 3.30807 -1.26855 -0.02782 H
atom 3.82030 0.03543 -0.87889 H
atom 0.74957 -0.49146 1.89031 O
atom 2.69926 0.15619 2.72618 O
atom 0.57842 2.77711 4.44328 C
atom 0.12518 2.31563 3.09764 C
atom 0.91699 2.47976 2.37250 H
atom -0.11194 1.26411 3.17183 H
atom -1.06535 3.05225 2.69429 N
atom -1.81147 2.92244 3.36720 H
atom -0.83476 4.03696 2.62943 H
atom -1.34695 2.73299 1.77833 H
atom 1.72379 3.25985 4.54753 O
atom -0.22591 2.61222 5.38339 O

lattice_vector 4.830373 0.0 0.0
lattice_vector 3.89601111244e-16 4.830373 0.0
lattice_vector 0.0483795758802 4.32335796539e-16 5.40837161911
atom 1.20497 4.69113 2.09160 C
atom 0.86416 4.38669 0.66070 C
atom 1.14782 3.36382 0.42816 H
atom -0.20567 4.49993 0.52303 H
atom 1.57521 5.30845 -0.21415 N
atom 1.19223 6.23368 -0.08161 H
atom 2.55956 5.32993 0.01499 H
atom 1.45770 5.02600 -1.18031 H
atom 1.13651 3.74374 2.89496 O
atom 1.57784 5.84018 2.41895 O
atom 3.82686 1.43234 4.70395 C
atom 4.10827 1.20218 3.24538 C
atom 5.09085 1.58654 3.01247 H
atom 4.08130 0.13475 3.04036 H
atom 3.09919 1.85646 2.42565 N
atom 2.24614 1.31592 2.46638 H
atom 2.91492 2.78841 2.77554 H
atom 3.40115 1.88697 1.45874 H
atom 3.98464 0.45537 5.46359 O
atom 3.40898 2.54425 5.09198 O

crossed_geometry: 
lattice_vector 4.830373 0.0 0.0
lattice_vector 3.89601111244e-16 4.830373 0.0
lattice_vector 0.0483795758802 4.32335796539e-16 5.40837161911
atom -1.22866 1.50979 2.09160 C
atom -1.56948 1.20535 0.66070 C
atom -1.28581 0.18248 0.42816 H
atom -2.63930 1.31859 0.52303 H
atom -0.85842 2.12711 -0.21415 N
atom -1.24140 3.05234 -0.08161 H
atom 0.12593 2.14860 0.01499 H
atom -0.97593 1.84466 -1.18031 H
atom -1.29713 0.56240 2.89496 O
atom -0.85579 2.65884 2.41895 O
atom 1.39323 -1.74899 4.70395 C
atom 1.67464 -1.97915 3.24538 C
atom 2.65721 -1.59480 3.01247 H
atom 1.64766 -3.04658 3.04036 H
atom 0.66556 -1.32487 2.42565 N
atom -0.18749 -1.86542 2.46638 H
atom 0.48129 -0.39292 2.77554 H
atom 0.96752 -1.29436 1.45874 H
atom 1.55100 -2.72597 5.46359 O
atom 0.97535 -0.63709 5.09198 O

Beginning mutation
Structure to be relaxed is not acceptable

Replica: cd5f05fc39
Beginning iteration
Beginning structure selection
Crossing structures: C:4_H:10_N:2_O:4/0/504537ac92 + C:4_H:10_N:2_O:4/0/ddfa0bbd69
Beginning crossover
geometries to cross: 
lattice_vector 6.463902 0.0 0.0
lattice_vector 3.30439220398e-16 6.463902 0.0
lattice_vector -0.495178511818 2.65849157315e-16 4.6791132194
atom -0.28161 1.53963 2.45692 C
atom -0.62209 0.09536 2.67476 C
atom -0.56218 -0.11556 3.73414 H
atom -1.63285 -0.10119 2.32911 H
atom 0.32257 -0.74686 1.95829 N
atom 0.33610 -0.51369 0.97661 H
atom 1.24288 -0.59525 2.34551 H
atom 0.06306 -1.72015 2.07125 H
atom -1.24127 2.31628 2.29894 O
atom 0.91445 1.90411 2.43328 O
atom 3.14818 4.18532 0.07266 C
atom 2.86656 2.74286 0.36677 C
atom 3.09423 2.54886 1.40426 H
atom 1.81614 2.53011 0.18382 H
atom 3.67856 1.90465 -0.49947 N
atom 3.29566 1.93607 -1.43346 H
atom 4.63177 2.24226 -0.51427 H
atom 3.64280 0.94297 -0.18257 H
atom 2.16294 4.91295 -0.15524 O
atom 4.32777 4.59471 0.05378 O

lattice_vector 4.75877 0.0 0.0
lattice_vector 0.032416424561 4.75870826493 0.0
lattice_vector 0.0137603096593 -1.29525629254 5.26638739235
atom -1.02745 0.82460 3.09027 C
atom -1.42983 0.87616 1.64432 C
atom -1.27731 -0.10077 1.19873 H
atom -2.48096 1.13435 1.59226 H
atom -0.63908 1.88308 0.93534 N
atom -0.87593 2.79999 1.28408 H
atom 0.34759 1.72620 1.07677 H
atom -0.84228 1.85297 -0.05606 H
atom -1.25311 -0.21647 3.74385 O
atom -0.49861 1.83681 3.59449 O
atom 1.49691 -2.82506 5.75363 C
atom 1.88249 -2.79134 4.30269 C
atom 2.93855 -2.55822 4.23441 H
atom 1.70178 -3.76723 3.86609 H
atom 1.10814 -1.76969 3.59731 N
atom 1.24645 -1.85310 2.59773 H
atom 0.12416 -1.85670 3.80485 H
atom 1.42225 -0.85571 3.88930 H
atom 1.70388 -3.86954 6.40786 O
atom 0.99117 -1.80064 6.25770 O

crossed_geometry: 
lattice_vector 4.75877 0.0 0.0
lattice_vector 0.032416424561 4.75870826493 0.0
lattice_vector 0.0137603096593 -1.29525629254 5.26638739235
atom -1.25939 1.39111 3.09027 C
atom -1.66177 1.44268 1.64432 C
atom -1.50925 0.46574 1.19873 H
atom -2.71290 1.70086 1.59226 H
atom -0.87102 2.44960 0.93534 N
atom -1.10787 3.36650 1.28408 H
atom 0.11565 2.29271 1.07677 H
atom -1.07422 2.41948 -0.05606 H
atom -1.48505 0.35005 3.74385 O
atom -0.73055 2.40333 3.59449 O
atom 1.26497 -2.25854 5.75363 C
atom 1.65055 -2.22482 4.30269 C
atom 2.70661 -1.99170 4.23441 H
atom 1.46984 -3.20072 3.86609 H
atom 0.87620 -1.20317 3.59731 N
atom 1.01451 -1.28659 2.59773 H
atom -0.10778 -1.29019 3.80485 H
atom 1.19031 -0.28919 3.88930 H
atom 1.47194 -3.30302 6.40786 O
atom 0.75923 -1.23412 6.25770 O

Beginning mutation
Structure to be relaxed is not acceptable

Replica: cd5f05fc39
Beginning iteration
Beginning structure selection
Crossing structures: C:4_H:10_N:2_O:4/0/ddfa0bbd69 + C:4_H:10_N:2_O:4/0/504537ac92
Beginning crossover
geometries to cross: 
lattice_vector 4.75877 0.0 0.0
lattice_vector 0.032416424561 4.75870826493 0.0
lattice_vector 0.0137603096593 -1.29525629254 5.26638739235
atom -1.02745 0.82460 3.09027 C
atom -1.42983 0.87616 1.64432 C
atom -1.27731 -0.10077 1.19873 H
atom -2.48096 1.13435 1.59226 H
atom -0.63908 1.88308 0.93534 N
atom -0.87593 2.79999 1.28408 H
atom 0.34759 1.72620 1.07677 H
atom -0.84228 1.85297 -0.05606 H
atom -1.25311 -0.21647 3.74385 O
atom -0.49861 1.83681 3.59449 O
atom 1.49691 -2.82506 5.75363 C
atom 1.88249 -2.79134 4.30269 C
atom 2.93855 -2.55822 4.23441 H
atom 1.70178 -3.76723 3.86609 H
atom 1.10814 -1.76969 3.59731 N
atom 1.24645 -1.85310 2.59773 H
atom 0.12416 -1.85670 3.80485 H
atom 1.42225 -0.85571 3.88930 H
atom 1.70388 -3.86954 6.40786 O
atom 0.99117 -1.80064 6.25770 O

lattice_vector 6.463902 0.0 0.0
lattice_vector 3.30439220398e-16 6.463902 0.0
lattice_vector -0.495178511818 2.65849157315e-16 4.6791132194
atom -0.28161 1.53963 2.45692 C
atom -0.62209 0.09536 2.67476 C
atom -0.56218 -0.11556 3.73414 H
atom -1.63285 -0.10119 2.32911 H
atom 0.32257 -0.74686 1.95829 N
atom 0.33610 -0.51369 0.97661 H
atom 1.24288 -0.59525 2.34551 H
atom 0.06306 -1.72015 2.07125 H
atom -1.24127 2.31628 2.29894 O
atom 0.91445 1.90411 2.43328 O
atom 3.14818 4.18532 0.07266 C
atom 2.86656 2.74286 0.36677 C
atom 3.09423 2.54886 1.40426 H
atom 1.81614 2.53011 0.18382 H
atom 3.67856 1.90465 -0.49947 N
atom 3.29566 1.93607 -1.43346 H
atom 4.63177 2.24226 -0.51427 H
atom 3.64280 0.94297 -0.18257 H
atom 2.16294 4.91295 -0.15524 O
atom 4.32777 4.59471 0.05378 O

crossed_geometry: 
lattice_vector 5.90258571529 0.0 0.0
lattice_vector 0.0289509116213 4.94100384606 0.0
lattice_vector -0.0427450218872 -1.15144944748 5.20118481701
atom -1.84179 0.00946 2.45692 C
atom -2.18228 -1.43481 2.67476 C
atom -2.12237 -1.64573 3.73414 H
atom -3.19303 -1.63136 2.32911 H
atom -1.23762 -2.27704 1.95829 N
atom -1.22409 -2.04386 0.97661 H
atom -0.31730 -2.12542 2.34551 H
atom -1.49712 -3.25032 2.07125 H
atom -2.80145 0.78611 2.29894 O
atom -0.64573 0.37393 2.43328 O
atom 1.58799 2.65515 0.07266 C
atom 1.30638 1.21269 0.36677 C
atom 1.53405 1.01869 1.40426 H
atom 0.25596 0.99994 0.18382 H
atom 2.11838 0.37447 -0.49947 N
atom 1.73547 0.40590 -1.43346 H
atom 3.07158 0.71209 -0.51427 H
atom 2.08262 -0.58720 -0.18257 H
atom 0.60276 3.38278 -0.15524 O
atom 2.76759 3.06454 0.05378 O

Beginning mutation
Beginning relaxation
Success: 
  stoichiometry-- C:4_H:10_N:2_O:4
  cascade-- 0
  structure index-- bd5a9d0741
  child count-- 2
  collection count -- 5
  replica-- cd5f05fc39
Iteration time: -- 0:00:08.962638

Replica: cd5f05fc39
Beginning iteration
Beginning structure selection
Crossing structures: C:4_H:10_N:2_O:4/0/5e59e45c79 + C:4_H:10_N:2_O:4/0/ddfa0bbd69
Beginning crossover
geometries to cross: 
lattice_vector 4.946704 0.0 0.0
lattice_vector 3.39030913714e-16 4.946704 0.0
lattice_vector 3.25416086622e-16 -1.34965075484e-06 5.314448
atom 1.89493 -0.00870 1.78607 C
atom 2.34818 0.45279 0.44043 C
atom 1.55637 0.28869 -0.28470 H
atom 2.58533 1.50430 0.51464 H
atom 3.53869 -0.28385 0.03707 N
atom 4.28482 -0.15408 0.70998 H
atom 3.30807 -1.26855 -0.02782 H
atom 3.82030 0.03543 -0.87889 H
atom 0.74957 -0.49146 1.89031 O
atom 2.69926 0.15619 2.72618 O
atom 0.57842 2.77711 4.44328 C
atom 0.12518 2.31563 3.09764 C
atom 0.91699 2.47976 2.37250 H
atom -0.11194 1.26411 3.17183 H
atom -1.06535 3.05225 2.69429 N
atom -1.81147 2.92244 3.36720 H
atom -0.83476 4.03696 2.62943 H
atom -1.34695 2.73299 1.77833 H
atom 1.72379 3.25985 4.54753 O
atom -0.22591 2.61222 5.38339 O

lattice_vector 4.75877 0.0 0.0
lattice_vector 0.032416424561 4.75870826493 0.0
lattice_vector 0.0137603096593 -1.29525629254 5.26638739235
atom -1.02745 0.82460 3.09027 C
atom -1.42983 0.87616 1.64432 C
atom -1.27731 -0.10077 1.19873 H
atom -2.48096 1.13435 1.59226 H
atom -0.63908 1.88308 0.93534 N
atom -0.87593 2.79999 1.28408 H
atom 0.34759 1.72620 1.07677 H
atom -0.84228 1.85297 -0.05606 H
atom -1.25311 -0.21647 3.74385 O
atom -0.49861 1.83681 3.59449 O
atom 1.49691 -2.82506 5.75363 C
atom 1.88249 -2.79134 4.30269 C
atom 2.93855 -2.55822 4.23441 H
atom 1.70178 -3.76723 3.86609 H
atom 1.10814 -1.76969 3.59731 N
atom 1.24645 -1.85310 2.59773 H
atom 0.12416 -1.85670 3.80485 H
atom 1.42225 -0.85571 3.88930 H
atom 1.70388 -3.86954 6.40786 O
atom 0.99117 -1.80064 6.25770 O

crossed_geometry: 
lattice_vector 4.75877 0.0 0.0
lattice_vector 0.032416424561 4.75870826493 0.0
lattice_vector 0.0137603096593 -1.29525629254 5.26638739235
atom -1.25939 1.39111 3.09027 C
atom -1.66177 1.44268 1.64432 C
atom -1.50925 0.46574 1.19873 H
atom -2.71290 1.70086 1.59226 H
atom -0.87102 2.44960 0.93534 N
atom -1.10787 3.36650 1.28408 H
atom 0.11565 2.29271 1.07677 H
atom -1.07422 2.41948 -0.05606 H
atom -1.48505 0.35005 3.74385 O
atom -0.73055 2.40333 3.59449 O
atom 1.26497 -2.25854 5.75363 C
atom 1.65055 -2.22482 4.30269 C
atom 2.70661 -1.99170 4.23441 H
atom 1.46984 -3.20072 3.86609 H
atom 0.87620 -1.20317 3.59731 N
atom 1.01451 -1.28659 2.59773 H
atom -0.10778 -1.29019 3.80485 H
atom 1.19031 -0.28919 3.88930 H
atom 1.47194 -3.30302 6.40786 O
atom 0.75923 -1.23412 6.25770 O

Beginning mutation
Structure to be relaxed is not acceptable

Replica: cd5f05fc39
Beginning iteration
Beginning structure selection
Crossing structures: C:4_H:10_N:2_O:4/0/ddfa0bbd69 + C:4_H:10_N:2_O:4/0/a91529895b
Beginning crossover
geometries to cross: 
lattice_vector 4.75877 0.0 0.0
lattice_vector 0.032416424561 4.75870826493 0.0
lattice_vector 0.0137603096593 -1.29525629254 5.26638739235
atom -1.02745 0.82460 3.09027 C
atom -1.42983 0.87616 1.64432 C
atom -1.27731 -0.10077 1.19873 H
atom -2.48096 1.13435 1.59226 H
atom -0.63908 1.88308 0.93534 N
atom -0.87593 2.79999 1.28408 H
atom 0.34759 1.72620 1.07677 H
atom -0.84228 1.85297 -0.05606 H
atom -1.25311 -0.21647 3.74385 O
atom -0.49861 1.83681 3.59449 O
atom 1.49691 -2.82506 5.75363 C
atom 1.88249 -2.79134 4.30269 C
atom 2.93855 -2.55822 4.23441 H
atom 1.70178 -3.76723 3.86609 H
atom 1.10814 -1.76969 3.59731 N
atom 1.24645 -1.85310 2.59773 H
atom 0.12416 -1.85670 3.80485 H
atom 1.42225 -0.85571 3.88930 H
atom 1.70388 -3.86954 6.40786 O
atom 0.99117 -1.80064 6.25770 O

lattice_vector 4.830373 0.0 0.0
lattice_vector 3.89601111244e-16 4.830373 0.0
lattice_vector 0.0483795758802 4.32335796539e-16 5.40837161911
atom 1.20497 4.69113 2.09160 C
atom 0.86416 4.38669 0.66070 C
atom 1.14782 3.36382 0.42816 H
atom -0.20567 4.49993 0.52303 H
atom 1.57521 5.30845 -0.21415 N
atom 1.19223 6.23368 -0.08161 H
atom 2.55956 5.32993 0.01499 H
atom 1.45770 5.02600 -1.18031 H
atom 1.13651 3.74374 2.89496 O
atom 1.57784 5.84018 2.41895 O
atom 3.82686 1.43234 4.70395 C
atom 4.10827 1.20218 3.24538 C
atom 5.09085 1.58654 3.01247 H
atom 4.08130 0.13475 3.04036 H
atom 3.09919 1.85646 2.42565 N
atom 2.24614 1.31592 2.46638 H
atom 2.91492 2.78841 2.77554 H
atom 3.40115 1.88697 1.45874 H
atom 3.98464 0.45537 5.46359 O
atom 3.40898 2.54425 5.09198 O

crossed_geometry: 
lattice_vector 4.75877 0.0 0.0
lattice_vector 0.032416424561 4.75870826493 0.0
lattice_vector 0.0137603096593 -1.29525629254 5.26638739235
atom -1.25939 1.39111 3.09027 C
atom -1.66177 1.44268 1.64432 C
atom -1.50925 0.46574 1.19873 H
atom -2.71290 1.70086 1.59226 H
atom -0.87102 2.44960 0.93534 N
atom -1.10787 3.36650 1.28408 H
atom 0.11565 2.29271 1.07677 H
atom -1.07422 2.41948 -0.05606 H
atom -1.48505 0.35005 3.74385 O
atom -0.73055 2.40333 3.59449 O
atom 1.39323 -1.74899 4.70395 C
atom 1.67464 -1.97915 3.24538 C
atom 2.65721 -1.59480 3.01247 H
atom 1.64766 -3.04658 3.04036 H
atom 0.66556 -1.32487 2.42565 N
atom -0.18749 -1.86542 2.46638 H
atom 0.48129 -0.39292 2.77554 H
atom 0.96752 -1.29436 1.45874 H
atom 1.55100 -2.72597 5.46359 O
atom 0.97535 -0.63709 5.09198 O

Beginning mutation
Structure to be relaxed is not acceptable

Replica: cd5f05fc39
Beginning iteration
Beginning structure selection
Crossing structures: C:4_H:10_N:2_O:4/0/bd5a9d0741 + C:4_H:10_N:2_O:4/0/504537ac92
Beginning crossover
geometries to cross: 
lattice_vector 6.53474 0.0 0.0
lattice_vector -0.793340033733 6.46373839861 0.0
lattice_vector -0.637640629394 -0.137071759419 4.64501119184
atom -2.08633 0.02183 2.28530 C
atom -2.16923 -1.44498 2.57258 C
atom -1.99552 -1.59146 3.62992 H
atom -3.15780 -1.81106 2.31469 H
atom -1.15078 -2.15221 1.80324 N
atom -1.31400 -2.02506 0.81643 H
atom -0.23727 -1.79514 2.03995 H
atom -1.18337 -3.14144 2.01869 H
atom -3.14419 0.65939 2.10172 O
atom -0.95350 0.54461 2.25327 O
atom 1.10314 2.77377 -0.03676 C
atom 1.02025 1.30697 0.25058 C
atom 1.19413 1.16052 1.30789 H
atom 0.03164 0.94090 -0.00715 H
atom 2.03854 0.59970 -0.51894 N
atom 1.87471 0.72633 -1.50572 H
atom 2.95208 0.95718 -0.28292 H
atom 2.00635 -0.38944 -0.30302 H
atom 0.04527 3.41131 -0.22036 O
atom 2.23597 3.29656 -0.06883 O

lattice_vector 6.463902 0.0 0.0
lattice_vector 3.30439220398e-16 6.463902 0.0
lattice_vector -0.495178511818 2.65849157315e-16 4.6791132194
atom -0.28161 1.53963 2.45692 C
atom -0.62209 0.09536 2.67476 C
atom -0.56218 -0.11556 3.73414 H
atom -1.63285 -0.10119 2.32911 H
atom 0.32257 -0.74686 1.95829 N
atom 0.33610 -0.51369 0.97661 H
atom 1.24288 -0.59525 2.34551 H
atom 0.06306 -1.72015 2.07125 H
atom -1.24127 2.31628 2.29894 O
atom 0.91445 1.90411 2.43328 O
atom 3.14818 4.18532 0.07266 C
atom 2.86656 2.74286 0.36677 C
atom 3.09423 2.54886 1.40426 H
atom 1.81614 2.53011 0.18382 H
atom 3.67856 1.90465 -0.49947 N
atom 3.29566 1.93607 -1.43346 H
atom 4.63177 2.24226 -0.51427 H
atom 3.64280 0.94297 -0.18257 H
atom 2.16294 4.91295 -0.15524 O
atom 4.32777 4.59471 0.05378 O

crossed_geometry: 
lattice_vector 6.463902 0.0 0.0
lattice_vector 3.30439220398e-16 6.463902 0.0
lattice_vector -0.495178511818 2.65849157315e-16 4.6791132194
atom -1.94183 -0.08059 2.28530 C
atom -2.02474 -1.54740 2.57258 C
atom -1.85103 -1.69388 3.62992 H
atom -3.01330 -1.91348 2.31469 H
atom -1.00629 -2.25463 1.80324 N
atom -1.16950 -2.12747 0.81643 H
atom -0.09277 -1.89755 2.03995 H
atom -1.03888 -3.24386 2.01869 H
atom -2.99969 0.55697 2.10172 O
atom -0.80900 0.44220 2.25327 O
atom 1.58799 2.65515 0.07266 C
atom 1.30638 1.21269 0.36677 C
atom 1.53405 1.01869 1.40426 H
atom 0.25596 0.99994 0.18382 H
atom 2.11838 0.37447 -0.49947 N
atom 1.73547 0.40590 -1.43346 H
atom 3.07158 0.71209 -0.51427 H
atom 2.08262 -0.58720 -0.18257 H
atom 0.60276 3.38278 -0.15524 O
atom 2.76759 3.06454 0.05378 O

Beginning mutation
Structure to be relaxed is not acceptable

Replica: cd5f05fc39
Beginning iteration
Beginning structure selection
Crossing structures: C:4_H:10_N:2_O:4/0/bd5a9d0741 + C:4_H:10_N:2_O:4/0/504537ac92
Beginning crossover
geometries to cross: 
lattice_vector 6.53474 0.0 0.0
lattice_vector -0.793340033733 6.46373839861 0.0
lattice_vector -0.637640629394 -0.137071759419 4.64501119184
atom -2.08633 0.02183 2.28530 C
atom -2.16923 -1.44498 2.57258 C
atom -1.99552 -1.59146 3.62992 H
atom -3.15780 -1.81106 2.31469 H
atom -1.15078 -2.15221 1.80324 N
atom -1.31400 -2.02506 0.81643 H
atom -0.23727 -1.79514 2.03995 H
atom -1.18337 -3.14144 2.01869 H
atom -3.14419 0.65939 2.10172 O
atom -0.95350 0.54461 2.25327 O
atom 1.10314 2.77377 -0.03676 C
atom 1.02025 1.30697 0.25058 C
atom 1.19413 1.16052 1.30789 H
atom 0.03164 0.94090 -0.00715 H
atom 2.03854 0.59970 -0.51894 N
atom 1.87471 0.72633 -1.50572 H
atom 2.95208 0.95718 -0.28292 H
atom 2.00635 -0.38944 -0.30302 H
atom 0.04527 3.41131 -0.22036 O
atom 2.23597 3.29656 -0.06883 O

lattice_vector 6.463902 0.0 0.0
lattice_vector 3.30439220398e-16 6.463902 0.0
lattice_vector -0.495178511818 2.65849157315e-16 4.6791132194
atom -0.28161 1.53963 2.45692 C
atom -0.62209 0.09536 2.67476 C
atom -0.56218 -0.11556 3.73414 H
atom -1.63285 -0.10119 2.32911 H
atom 0.32257 -0.74686 1.95829 N
atom 0.33610 -0.51369 0.97661 H
atom 1.24288 -0.59525 2.34551 H
atom 0.06306 -1.72015 2.07125 H
atom -1.24127 2.31628 2.29894 O
atom 0.91445 1.90411 2.43328 O
atom 3.14818 4.18532 0.07266 C
atom 2.86656 2.74286 0.36677 C
atom 3.09423 2.54886 1.40426 H
atom 1.81614 2.53011 0.18382 H
atom 3.67856 1.90465 -0.49947 N
atom 3.29566 1.93607 -1.43346 H
atom 4.63177 2.24226 -0.51427 H
atom 3.64280 0.94297 -0.18257 H
atom 2.16294 4.91295 -0.15524 O
atom 4.32777 4.59471 0.05378 O

crossed_geometry: 
lattice_vector 6.53474 0.0 0.0
lattice_vector -0.793340033733 6.46373839861 0.0
lattice_vector -0.637640629394 -0.137071759419 4.64501119184
atom -1.94183 -0.08059 2.28530 C
atom -2.02474 -1.54740 2.57258 C
atom -1.85103 -1.69388 3.62992 H
atom -3.01330 -1.91348 2.31469 H
atom -1.00629 -2.25463 1.80324 N
atom -1.16950 -2.12747 0.81643 H
atom -0.09277 -1.89755 2.03995 H
atom -1.03888 -3.24386 2.01869 H
atom -2.99969 0.55697 2.10172 O
atom -0.80900 0.44220 2.25327 O
atom 1.58799 2.65515 0.07266 C
atom 1.30638 1.21269 0.36677 C
atom 1.53405 1.01869 1.40426 H
atom 0.25596 0.99994 0.18382 H
atom 2.11838 0.37447 -0.49947 N
atom 1.73547 0.40590 -1.43346 H
atom 3.07158 0.71209 -0.51427 H
atom 2.08262 -0.58720 -0.18257 H
atom 0.60276 3.38278 -0.15524 O
atom 2.76759 3.06454 0.05378 O

Beginning mutation
Structure to be relaxed is not acceptable

Replica: cd5f05fc39
Beginning iteration
Beginning structure selection
Crossing structures: C:4_H:10_N:2_O:4/0/bd5a9d0741 + C:4_H:10_N:2_O:4/0/504537ac92
Beginning crossover
geometries to cross: 
lattice_vector 6.53474 0.0 0.0
lattice_vector -0.793340033733 6.46373839861 0.0
lattice_vector -0.637640629394 -0.137071759419 4.64501119184
atom -2.08633 0.02183 2.28530 C
atom -2.16923 -1.44498 2.57258 C
atom -1.99552 -1.59146 3.62992 H
atom -3.15780 -1.81106 2.31469 H
atom -1.15078 -2.15221 1.80324 N
atom -1.31400 -2.02506 0.81643 H
atom -0.23727 -1.79514 2.03995 H
atom -1.18337 -3.14144 2.01869 H
atom -3.14419 0.65939 2.10172 O
atom -0.95350 0.54461 2.25327 O
atom 1.10314 2.77377 -0.03676 C
atom 1.02025 1.30697 0.25058 C
atom 1.19413 1.16052 1.30789 H
atom 0.03164 0.94090 -0.00715 H
atom 2.03854 0.59970 -0.51894 N
atom 1.87471 0.72633 -1.50572 H
atom 2.95208 0.95718 -0.28292 H
atom 2.00635 -0.38944 -0.30302 H
atom 0.04527 3.41131 -0.22036 O
atom 2.23597 3.29656 -0.06883 O

lattice_vector 6.463902 0.0 0.0
lattice_vector 3.30439220398e-16 6.463902 0.0
lattice_vector -0.495178511818 2.65849157315e-16 4.6791132194
atom -0.28161 1.53963 2.45692 C
atom -0.62209 0.09536 2.67476 C
atom -0.56218 -0.11556 3.73414 H
atom -1.63285 -0.10119 2.32911 H
atom 0.32257 -0.74686 1.95829 N
atom 0.33610 -0.51369 0.97661 H
atom 1.24288 -0.59525 2.34551 H
atom 0.06306 -1.72015 2.07125 H
atom -1.24127 2.31628 2.29894 O
atom 0.91445 1.90411 2.43328 O
atom 3.14818 4.18532 0.07266 C
atom 2.86656 2.74286 0.36677 C
atom 3.09423 2.54886 1.40426 H
atom 1.81614 2.53011 0.18382 H
atom 3.67856 1.90465 -0.49947 N
atom 3.29566 1.93607 -1.43346 H
atom 4.63177 2.24226 -0.51427 H
atom 3.64280 0.94297 -0.18257 H
atom 2.16294 4.91295 -0.15524 O
atom 4.32777 4.59471 0.05378 O

crossed_geometry: 
lattice_vector 6.52324431543 0.0 0.0
lattice_vector -0.752097399854 6.4637469036 0.0
lattice_vector -0.529590728055 -0.0331101566189 4.67087575693
atom -1.94183 -0.08059 2.28530 C
atom -2.02474 -1.54740 2.57258 C
atom -1.85103 -1.69388 3.62992 H
atom -3.01330 -1.91348 2.31469 H
atom -1.00629 -2.25463 1.80324 N
atom -1.16950 -2.12747 0.81643 H
atom -0.09277 -1.89755 2.03995 H
atom -1.03888 -3.24386 2.01869 H
atom -2.99969 0.55697 2.10172 O
atom -0.80900 0.44220 2.25327 O
atom 1.58799 2.65515 0.07266 C
atom 1.30638 1.21269 0.36677 C
atom 1.53405 1.01869 1.40426 H
atom 0.25596 0.99994 0.18382 H
atom 2.11838 0.37447 -0.49947 N
atom 1.73547 0.40590 -1.43346 H
atom 3.07158 0.71209 -0.51427 H
atom 2.08262 -0.58720 -0.18257 H
atom 0.60276 3.38278 -0.15524 O
atom 2.76759 3.06454 0.05378 O

Beginning mutation
Structure to be relaxed is not acceptable

Replica: cd5f05fc39
Beginning iteration
Beginning structure selection
Crossing structures: C:4_H:10_N:2_O:4/0/504537ac92 + C:4_H:10_N:2_O:4/0/a91529895b
Beginning crossover
geometries to cross: 
lattice_vector 6.463902 0.0 0.0
lattice_vector 3.30439220398e-16 6.463902 0.0
lattice_vector -0.495178511818 2.65849157315e-16 4.6791132194
atom -0.28161 1.53963 2.45692 C
atom -0.62209 0.09536 2.67476 C
atom -0.56218 -0.11556 3.73414 H
atom -1.63285 -0.10119 2.32911 H
atom 0.32257 -0.74686 1.95829 N
atom 0.33610 -0.51369 0.97661 H
atom 1.24288 -0.59525 2.34551 H
atom 0.06306 -1.72015 2.07125 H
atom -1.24127 2.31628 2.29894 O
atom 0.91445 1.90411 2.43328 O
atom 3.14818 4.18532 0.07266 C
atom 2.86656 2.74286 0.36677 C
atom 3.09423 2.54886 1.40426 H
atom 1.81614 2.53011 0.18382 H
atom 3.67856 1.90465 -0.49947 N
atom 3.29566 1.93607 -1.43346 H
atom 4.63177 2.24226 -0.51427 H
atom 3.64280 0.94297 -0.18257 H
atom 2.16294 4.91295 -0.15524 O
atom 4.32777 4.59471 0.05378 O

lattice_vector 4.830373 0.0 0.0
lattice_vector 3.89601111244e-16 4.830373 0.0
lattice_vector 0.0483795758802 4.32335796539e-16 5.40837161911
atom 1.20497 4.69113 2.09160 C
atom 0.86416 4.38669 0.66070 C
atom 1.14782 3.36382 0.42816 H
atom -0.20567 4.49993 0.52303 H
atom 1.57521 5.30845 -0.21415 N
atom 1.19223 6.23368 -0.08161 H
atom 2.55956 5.32993 0.01499 H
atom 1.45770 5.02600 -1.18031 H
atom 1.13651 3.74374 2.89496 O
atom 1.57784 5.84018 2.41895 O
atom 3.82686 1.43234 4.70395 C
atom 4.10827 1.20218 3.24538 C
atom 5.09085 1.58654 3.01247 H
atom 4.08130 0.13475 3.04036 H
atom 3.09919 1.85646 2.42565 N
atom 2.24614 1.31592 2.46638 H
atom 2.91492 2.78841 2.77554 H
atom 3.40115 1.88697 1.45874 H
atom 3.98464 0.45537 5.46359 O
atom 3.40898 2.54425 5.09198 O

crossed_geometry: 
lattice_vector 4.830373 0.0 0.0
lattice_vector 3.89601111244e-16 4.830373 0.0
lattice_vector 0.0483795758802 4.32335796539e-16 5.40837161911
atom -1.22866 1.50979 2.09160 C
atom -1.56948 1.20535 0.66070 C
atom -1.28581 0.18248 0.42816 H
atom -2.63930 1.31859 0.52303 H
atom -0.85842 2.12711 -0.21415 N
atom -1.24140 3.05234 -0.08161 H
atom 0.12593 2.14860 0.01499 H
atom -0.97593 1.84466 -1.18031 H
atom -1.29713 0.56240 2.89496 O
atom -0.85579 2.65884 2.41895 O
atom 1.39323 -1.74899 4.70395 C
atom 1.67464 -1.97915 3.24538 C
atom 2.65721 -1.59480 3.01247 H
atom 1.64766 -3.04658 3.04036 H
atom 0.66556 -1.32487 2.42565 N
atom -0.18749 -1.86542 2.46638 H
atom 0.48129 -0.39292 2.77554 H
atom 0.96752 -1.29436 1.45874 H
atom 1.55100 -2.72597 5.46359 O
atom 0.97535 -0.63709 5.09198 O

Beginning mutation
Beginning relaxation
Newly relaxed structure is not acceptable

Replica: cd5f05fc39
Beginning iteration
Beginning structure selection
Crossing structures: C:4_H:10_N:2_O:4/0/bd5a9d0741 + C:4_H:10_N:2_O:4/0/a91529895b
Beginning crossover
Crossover failure

Replica: cd5f05fc39
Beginning iteration
Beginning structure selection
Crossing structures: C:4_H:10_N:2_O:4/0/bd5a9d0741 + C:4_H:10_N:2_O:4/0/504537ac92
Beginning crossover
geometries to cross: 
lattice_vector 6.53474 0.0 0.0
lattice_vector -0.793340033733 6.46373839861 0.0
lattice_vector -0.637640629394 -0.137071759419 4.64501119184
atom -2.08633 0.02183 2.28530 C
atom -2.16923 -1.44498 2.57258 C
atom -1.99552 -1.59146 3.62992 H
atom -3.15780 -1.81106 2.31469 H
atom -1.15078 -2.15221 1.80324 N
atom -1.31400 -2.02506 0.81643 H
atom -0.23727 -1.79514 2.03995 H
atom -1.18337 -3.14144 2.01869 H
atom -3.14419 0.65939 2.10172 O
atom -0.95350 0.54461 2.25327 O
atom 1.10314 2.77377 -0.03676 C
atom 1.02025 1.30697 0.25058 C
atom 1.19413 1.16052 1.30789 H
atom 0.03164 0.94090 -0.00715 H
atom 2.03854 0.59970 -0.51894 N
atom 1.87471 0.72633 -1.50572 H
atom 2.95208 0.95718 -0.28292 H
atom 2.00635 -0.38944 -0.30302 H
atom 0.04527 3.41131 -0.22036 O
atom 2.23597 3.29656 -0.06883 O

lattice_vector 6.463902 0.0 0.0
lattice_vector 3.30439220398e-16 6.463902 0.0
lattice_vector -0.495178511818 2.65849157315e-16 4.6791132194
atom -0.28161 1.53963 2.45692 C
atom -0.62209 0.09536 2.67476 C
atom -0.56218 -0.11556 3.73414 H
atom -1.63285 -0.10119 2.32911 H
atom 0.32257 -0.74686 1.95829 N
atom 0.33610 -0.51369 0.97661 H
atom 1.24288 -0.59525 2.34551 H
atom 0.06306 -1.72015 2.07125 H
atom -1.24127 2.31628 2.29894 O
atom 0.91445 1.90411 2.43328 O
atom 3.14818 4.18532 0.07266 C
atom 2.86656 2.74286 0.36677 C
atom 3.09423 2.54886 1.40426 H
atom 1.81614 2.53011 0.18382 H
atom 3.67856 1.90465 -0.49947 N
atom 3.29566 1.93607 -1.43346 H
atom 4.63177 2.24226 -0.51427 H
atom 3.64280 0.94297 -0.18257 H
atom 2.16294 4.91295 -0.15524 O
atom 4.32777 4.59471 0.05378 O

crossed_geometry: 
lattice_vector 6.50435924368 0.0 0.0
lattice_vector -0.0687156191814 6.46388782957 0.0
lattice_vector -0.626169826287 -0.126034978621 4.64775702807
atom -1.94183 -0.08059 2.28530 C
atom -2.02474 -1.54740 2.57258 C
atom -1.85103 -1.69388 3.62992 H
atom -3.01330 -1.91348 2.31469 H
atom -1.00629 -2.25463 1.80324 N
atom -1.16950 -2.12747 0.81643 H
atom -0.09277 -1.89755 2.03995 H
atom -1.03888 -3.24386 2.01869 H
atom -2.99969 0.55697 2.10172 O
atom -0.80900 0.44220 2.25327 O
atom 1.58799 2.65515 0.07266 C
atom 1.30638 1.21269 0.36677 C
atom 1.53405 1.01869 1.40426 H
atom 0.25596 0.99994 0.18382 H
atom 2.11838 0.37447 -0.49947 N
atom 1.73547 0.40590 -1.43346 H
atom 3.07158 0.71209 -0.51427 H
atom 2.08262 -0.58720 -0.18257 H
atom 0.60276 3.38278 -0.15524 O
atom 2.76759 3.06454 0.05378 O

Beginning mutation
Beginning relaxation
Newly relaxed structure is not acceptable

Replica: cd5f05fc39
Beginning iteration
Beginning structure selection
Crossing structures: C:4_H:10_N:2_O:4/0/a91529895b + C:4_H:10_N:2_O:4/0/bd5a9d0741
Beginning crossover
geometries to cross: 
lattice_vector 4.830373 0.0 0.0
lattice_vector 3.89601111244e-16 4.830373 0.0
lattice_vector 0.0483795758802 4.32335796539e-16 5.40837161911
atom 1.20497 4.69113 2.09160 C
atom 0.86416 4.38669 0.66070 C
atom 1.14782 3.36382 0.42816 H
atom -0.20567 4.49993 0.52303 H
atom 1.57521 5.30845 -0.21415 N
atom 1.19223 6.23368 -0.08161 H
atom 2.55956 5.32993 0.01499 H
atom 1.45770 5.02600 -1.18031 H
atom 1.13651 3.74374 2.89496 O
atom 1.57784 5.84018 2.41895 O
atom 3.82686 1.43234 4.70395 C
atom 4.10827 1.20218 3.24538 C
atom 5.09085 1.58654 3.01247 H
atom 4.08130 0.13475 3.04036 H
atom 3.09919 1.85646 2.42565 N
atom 2.24614 1.31592 2.46638 H
atom 2.91492 2.78841 2.77554 H
atom 3.40115 1.88697 1.45874 H
atom 3.98464 0.45537 5.46359 O
atom 3.40898 2.54425 5.09198 O

lattice_vector 6.53474 0.0 0.0
lattice_vector -0.793340033733 6.46373839861 0.0
lattice_vector -0.637640629394 -0.137071759419 4.64501119184
atom -2.08633 0.02183 2.28530 C
atom -2.16923 -1.44498 2.57258 C
atom -1.99552 -1.59146 3.62992 H
atom -3.15780 -1.81106 2.31469 H
atom -1.15078 -2.15221 1.80324 N
atom -1.31400 -2.02506 0.81643 H
atom -0.23727 -1.79514 2.03995 H
atom -1.18337 -3.14144 2.01869 H
atom -3.14419 0.65939 2.10172 O
atom -0.95350 0.54461 2.25327 O
atom 1.10314 2.77377 -0.03676 C
atom 1.02025 1.30697 0.25058 C
atom 1.19413 1.16052 1.30789 H
atom 0.03164 0.94090 -0.00715 H
atom 2.03854 0.59970 -0.51894 N
atom 1.87471 0.72633 -1.50572 H
atom 2.95208 0.95718 -0.28292 H
atom 2.00635 -0.38944 -0.30302 H
atom 0.04527 3.41131 -0.22036 O
atom 2.23597 3.29656 -0.06883 O

crossed_geometry: 
lattice_vector 4.830373 0.0 0.0
lattice_vector 3.89601111244e-16 4.830373 0.0
lattice_vector 0.0483795758802 4.32335796539e-16 5.40837161911
atom -1.22866 1.50979 2.09160 C
atom -1.56948 1.20535 0.66070 C
atom -1.28581 0.18248 0.42816 H
atom -2.63930 1.31859 0.52303 H
atom -0.85842 2.12711 -0.21415 N
atom -1.24140 3.05234 -0.08161 H
atom 0.12593 2.14860 0.01499 H
atom -0.97593 1.84466 -1.18031 H
atom -1.29713 0.56240 2.89496 O
atom -0.85579 2.65884 2.41895 O
atom 1.39323 -1.74899 4.70395 C
atom 1.67464 -1.97915 3.24538 C
atom 2.65721 -1.59480 3.01247 H
atom 1.64766 -3.04658 3.04036 H
atom 0.66556 -1.32487 2.42565 N
atom -0.18749 -1.86542 2.46638 H
atom 0.48129 -0.39292 2.77554 H
atom 0.96752 -1.29436 1.45874 H
atom 1.55100 -2.72597 5.46359 O
atom 0.97535 -0.63709 5.09198 O

Beginning mutation
Beginning relaxation
Newly relaxed structure is not acceptable

Replica: cd5f05fc39
Beginning iteration
Beginning structure selection
Crossing structures: C:4_H:10_N:2_O:4/0/ddfa0bbd69 + C:4_H:10_N:2_O:4/0/a91529895b
Beginning crossover
geometries to cross: 
lattice_vector 4.75877 0.0 0.0
lattice_vector 0.032416424561 4.75870826493 0.0
lattice_vector 0.0137603096593 -1.29525629254 5.26638739235
atom -1.02745 0.82460 3.09027 C
atom -1.42983 0.87616 1.64432 C
atom -1.27731 -0.10077 1.19873 H
atom -2.48096 1.13435 1.59226 H
atom -0.63908 1.88308 0.93534 N
atom -0.87593 2.79999 1.28408 H
atom 0.34759 1.72620 1.07677 H
atom -0.84228 1.85297 -0.05606 H
atom -1.25311 -0.21647 3.74385 O
atom -0.49861 1.83681 3.59449 O
atom 1.49691 -2.82506 5.75363 C
atom 1.88249 -2.79134 4.30269 C
atom 2.93855 -2.55822 4.23441 H
atom 1.70178 -3.76723 3.86609 H
atom 1.10814 -1.76969 3.59731 N
atom 1.24645 -1.85310 2.59773 H
atom 0.12416 -1.85670 3.80485 H
atom 1.42225 -0.85571 3.88930 H
atom 1.70388 -3.86954 6.40786 O
atom 0.99117 -1.80064 6.25770 O

lattice_vector 4.830373 0.0 0.0
lattice_vector 3.89601111244e-16 4.830373 0.0
lattice_vector 0.0483795758802 4.32335796539e-16 5.40837161911
atom 1.20497 4.69113 2.09160 C
atom 0.86416 4.38669 0.66070 C
atom 1.14782 3.36382 0.42816 H
atom -0.20567 4.49993 0.52303 H
atom 1.57521 5.30845 -0.21415 N
atom 1.19223 6.23368 -0.08161 H
atom 2.55956 5.32993 0.01499 H
atom 1.45770 5.02600 -1.18031 H
atom 1.13651 3.74374 2.89496 O
atom 1.57784 5.84018 2.41895 O
atom 3.82686 1.43234 4.70395 C
atom 4.10827 1.20218 3.24538 C
atom 5.09085 1.58654 3.01247 H
atom 4.08130 0.13475 3.04036 H
atom 3.09919 1.85646 2.42565 N
atom 2.24614 1.31592 2.46638 H
atom 2.91492 2.78841 2.77554 H
atom 3.40115 1.88697 1.45874 H
atom 3.98464 0.45537 5.46359 O
atom 3.40898 2.54425 5.09198 O

crossed_geometry: 
lattice_vector 4.8111710351 0.0 0.0
lattice_vector 0.0238245696162 4.77770274124 0.0
lattice_vector 0.0424363360108 -0.222362276251 5.38399656991
atom -1.25939 1.39111 3.09027 C
atom -1.66177 1.44268 1.64432 C
atom -1.50925 0.46574 1.19873 H
atom -2.71290 1.70086 1.59226 H
atom -0.87102 2.44960 0.93534 N
atom -1.10787 3.36650 1.28408 H
atom 0.11565 2.29271 1.07677 H
atom -1.07422 2.41948 -0.05606 H
atom -1.48505 0.35005 3.74385 O
atom -0.73055 2.40333 3.59449 O
atom 1.26497 -2.25854 5.75363 C
atom 1.65055 -2.22482 4.30269 C
atom 2.70661 -1.99170 4.23441 H
atom 1.46984 -3.20072 3.86609 H
atom 0.87620 -1.20317 3.59731 N
atom 1.01451 -1.28659 2.59773 H
atom -0.10778 -1.29019 3.80485 H
atom 1.19031 -0.28919 3.88930 H
atom 1.47194 -3.30302 6.40786 O
atom 0.75923 -1.23412 6.25770 O

Beginning mutation
Structure to be relaxed is not acceptable

Replica: cd5f05fc39
Beginning iteration
Beginning structure selection
Crossing structures: C:4_H:10_N:2_O:4/0/bd5a9d0741 + C:4_H:10_N:2_O:4/0/ddfa0bbd69
Beginning crossover
geometries to cross: 
lattice_vector 6.53474 0.0 0.0
lattice_vector -0.793340033733 6.46373839861 0.0
lattice_vector -0.637640629394 -0.137071759419 4.64501119184
atom -2.08633 0.02183 2.28530 C
atom -2.16923 -1.44498 2.57258 C
atom -1.99552 -1.59146 3.62992 H
atom -3.15780 -1.81106 2.31469 H
atom -1.15078 -2.15221 1.80324 N
atom -1.31400 -2.02506 0.81643 H
atom -0.23727 -1.79514 2.03995 H
atom -1.18337 -3.14144 2.01869 H
atom -3.14419 0.65939 2.10172 O
atom -0.95350 0.54461 2.25327 O
atom 1.10314 2.77377 -0.03676 C
atom 1.02025 1.30697 0.25058 C
atom 1.19413 1.16052 1.30789 H
atom 0.03164 0.94090 -0.00715 H
atom 2.03854 0.59970 -0.51894 N
atom 1.87471 0.72633 -1.50572 H
atom 2.95208 0.95718 -0.28292 H
atom 2.00635 -0.38944 -0.30302 H
atom 0.04527 3.41131 -0.22036 O
atom 2.23597 3.29656 -0.06883 O

lattice_vector 4.75877 0.0 0.0
lattice_vector 0.032416424561 4.75870826493 0.0
lattice_vector 0.0137603096593 -1.29525629254 5.26638739235
atom -1.02745 0.82460 3.09027 C
atom -1.42983 0.87616 1.64432 C
atom -1.27731 -0.10077 1.19873 H
atom -2.48096 1.13435 1.59226 H
atom -0.63908 1.88308 0.93534 N
atom -0.87593 2.79999 1.28408 H
atom 0.34759 1.72620 1.07677 H
atom -0.84228 1.85297 -0.05606 H
atom -1.25311 -0.21647 3.74385 O
atom -0.49861 1.83681 3.59449 O
atom 1.49691 -2.82506 5.75363 C
atom 1.88249 -2.79134 4.30269 C
atom 2.93855 -2.55822 4.23441 H
atom 1.70178 -3.76723 3.86609 H
atom 1.10814 -1.76969 3.59731 N
atom 1.24645 -1.85310 2.59773 H
atom 0.12416 -1.85670 3.80485 H
atom 1.42225 -0.85571 3.88930 H
atom 1.70388 -3.86954 6.40786 O
atom 0.99117 -1.80064 6.25770 O

crossed_geometry: 
lattice_vector 6.53474 0.0 0.0
lattice_vector -0.793340033733 6.46373839861 0.0
lattice_vector -0.637640629394 -0.137071759419 4.64501119184
atom -1.25939 1.39111 3.09027 C
atom -1.66177 1.44268 1.64432 C
atom -1.50925 0.46574 1.19873 H
atom -2.71290 1.70086 1.59226 H
atom -0.87102 2.44960 0.93534 N
atom -1.10787 3.36650 1.28408 H
atom 0.11565 2.29271 1.07677 H
atom -1.07422 2.41948 -0.05606 H
atom -1.48505 0.35005 3.74385 O
atom -0.73055 2.40333 3.59449 O
atom 1.26497 -2.25854 5.75363 C
atom 1.65055 -2.22482 4.30269 C
atom 2.70661 -1.99170 4.23441 H
atom 1.46984 -3.20072 3.86609 H
atom 0.87620 -1.20317 3.59731 N
atom 1.01451 -1.28659 2.59773 H
atom -0.10778 -1.29019 3.80485 H
atom 1.19031 -0.28919 3.88930 H
atom 1.47194 -3.30302 6.40786 O
atom 0.75923 -1.23412 6.25770 O

Beginning mutation
Structure to be relaxed is not acceptable

Replica: cd5f05fc39
Beginning iteration
Beginning structure selection
Crossing structures: C:4_H:10_N:2_O:4/0/504537ac92 + C:4_H:10_N:2_O:4/0/5e59e45c79
Beginning crossover
geometries to cross: 
lattice_vector 6.463902 0.0 0.0
lattice_vector 3.30439220398e-16 6.463902 0.0
lattice_vector -0.495178511818 2.65849157315e-16 4.6791132194
atom -0.28161 1.53963 2.45692 C
atom -0.62209 0.09536 2.67476 C
atom -0.56218 -0.11556 3.73414 H
atom -1.63285 -0.10119 2.32911 H
atom 0.32257 -0.74686 1.95829 N
atom 0.33610 -0.51369 0.97661 H
atom 1.24288 -0.59525 2.34551 H
atom 0.06306 -1.72015 2.07125 H
atom -1.24127 2.31628 2.29894 O
atom 0.91445 1.90411 2.43328 O
atom 3.14818 4.18532 0.07266 C
atom 2.86656 2.74286 0.36677 C
atom 3.09423 2.54886 1.40426 H
atom 1.81614 2.53011 0.18382 H
atom 3.67856 1.90465 -0.49947 N
atom 3.29566 1.93607 -1.43346 H
atom 4.63177 2.24226 -0.51427 H
atom 3.64280 0.94297 -0.18257 H
atom 2.16294 4.91295 -0.15524 O
atom 4.32777 4.59471 0.05378 O

lattice_vector 4.946704 0.0 0.0
lattice_vector 3.39030913714e-16 4.946704 0.0
lattice_vector 3.25416086622e-16 -1.34965075484e-06 5.314448
atom 1.89493 -0.00870 1.78607 C
atom 2.34818 0.45279 0.44043 C
atom 1.55637 0.28869 -0.28470 H
atom 2.58533 1.50430 0.51464 H
atom 3.53869 -0.28385 0.03707 N
atom 4.28482 -0.15408 0.70998 H
atom 3.30807 -1.26855 -0.02782 H
atom 3.82030 0.03543 -0.87889 H
atom 0.74957 -0.49146 1.89031 O
atom 2.69926 0.15619 2.72618 O
atom 0.57842 2.77711 4.44328 C
atom 0.12518 2.31563 3.09764 C
atom 0.91699 2.47976 2.37250 H
atom -0.11194 1.26411 3.17183 H
atom -1.06535 3.05225 2.69429 N
atom -1.81147 2.92244 3.36720 H
atom -0.83476 4.03696 2.62943 H
atom -1.34695 2.73299 1.77833 H
atom 1.72379 3.25985 4.54753 O
atom -0.22591 2.61222 5.38339 O

crossed_geometry: 
lattice_vector 6.37590679925 0.0 0.0
lattice_vector 3.31044571467e-16 6.35700369748 0.0
lattice_vector -0.387321606777 -2.93973081882e-07 4.8174981482
atom 0.65826 -1.39291 1.78607 C
atom 1.11150 -0.93141 0.44043 C
atom 0.31969 -1.09552 -0.28470 H
atom 1.34865 0.12010 0.51464 H
atom 2.30201 -1.66805 0.03707 N
atom 3.04814 -1.53829 0.70998 H
atom 2.07140 -2.65275 -0.02782 H
atom 2.58362 -1.34877 -0.87889 H
atom -0.48710 -1.87566 1.89031 O
atom 1.46259 -1.22802 2.72618 O
atom -0.65825 1.39291 4.44328 C
atom -1.11149 0.93142 3.09764 C
atom -0.31969 1.09556 2.37250 H
atom -1.34862 -0.12010 3.17183 H
atom -2.30202 1.66805 2.69429 N
atom -3.04815 1.53824 3.36720 H
atom -2.07144 2.65276 2.62943 H
atom -2.58362 1.34878 1.77833 H
atom 0.48711 1.87564 4.54753 O
atom -1.46259 1.22802 5.38339 O

Beginning mutation
Beginning relaxation
Newly relaxed structure is not acceptable

Replica: cd5f05fc39
Beginning iteration
Beginning structure selection
Crossing structures: C:4_H:10_N:2_O:4/0/a91529895b + C:4_H:10_N:2_O:4/0/ddfa0bbd69
Beginning crossover
geometries to cross: 
lattice_vector 4.830373 0.0 0.0
lattice_vector 3.89601111244e-16 4.830373 0.0
lattice_vector 0.0483795758802 4.32335796539e-16 5.40837161911
atom 1.20497 4.69113 2.09160 C
atom 0.86416 4.38669 0.66070 C
atom 1.14782 3.36382 0.42816 H
atom -0.20567 4.49993 0.52303 H
atom 1.57521 5.30845 -0.21415 N
atom 1.19223 6.23368 -0.08161 H
atom 2.55956 5.32993 0.01499 H
atom 1.45770 5.02600 -1.18031 H
atom 1.13651 3.74374 2.89496 O
atom 1.57784 5.84018 2.41895 O
atom 3.82686 1.43234 4.70395 C
atom 4.10827 1.20218 3.24538 C
atom 5.09085 1.58654 3.01247 H
atom 4.08130 0.13475 3.04036 H
atom 3.09919 1.85646 2.42565 N
atom 2.24614 1.31592 2.46638 H
atom 2.91492 2.78841 2.77554 H
atom 3.40115 1.88697 1.45874 H
atom 3.98464 0.45537 5.46359 O
atom 3.40898 2.54425 5.09198 O

lattice_vector 4.75877 0.0 0.0
lattice_vector 0.032416424561 4.75870826493 0.0
lattice_vector 0.0137603096593 -1.29525629254 5.26638739235
atom -1.02745 0.82460 3.09027 C
atom -1.42983 0.87616 1.64432 C
atom -1.27731 -0.10077 1.19873 H
atom -2.48096 1.13435 1.59226 H
atom -0.63908 1.88308 0.93534 N
atom -0.87593 2.79999 1.28408 H
atom 0.34759 1.72620 1.07677 H
atom -0.84228 1.85297 -0.05606 H
atom -1.25311 -0.21647 3.74385 O
atom -0.49861 1.83681 3.59449 O
atom 1.49691 -2.82506 5.75363 C
atom 1.88249 -2.79134 4.30269 C
atom 2.93855 -2.55822 4.23441 H
atom 1.70178 -3.76723 3.86609 H
atom 1.10814 -1.76969 3.59731 N
atom 1.24645 -1.85310 2.59773 H
atom 0.12416 -1.85670 3.80485 H
atom 1.42225 -0.85571 3.88930 H
atom 1.70388 -3.86954 6.40786 O
atom 0.99117 -1.80064 6.25770 O

crossed_geometry: 
lattice_vector 4.75877 0.0 0.0
lattice_vector 0.032416424561 4.75870826493 0.0
lattice_vector 0.0137603096593 -1.29525629254 5.26638739235
atom -1.22866 1.50979 2.09160 C
atom -1.56948 1.20535 0.66070 C
atom -1.28581 0.18248 0.42816 H
atom -2.63930 1.31859 0.52303 H
atom -0.85842 2.12711 -0.21415 N
atom -1.24140 3.05234 -0.08161 H
atom 0.12593 2.14860 0.01499 H
atom -0.97593 1.84466 -1.18031 H
atom -1.29713 0.56240 2.89496 O
atom -0.85579 2.65884 2.41895 O
atom 1.39323 -1.74899 4.70395 C
atom 1.67464 -1.97915 3.24538 C
atom 2.65721 -1.59480 3.01247 H
atom 1.64766 -3.04658 3.04036 H
atom 0.66556 -1.32487 2.42565 N
atom -0.18749 -1.86542 2.46638 H
atom 0.48129 -0.39292 2.77554 H
atom 0.96752 -1.29436 1.45874 H
atom 1.55100 -2.72597 5.46359 O
atom 0.97535 -0.63709 5.09198 O

Beginning mutation
Structure to be relaxed is not acceptable

Replica: cd5f05fc39
Beginning iteration
Beginning structure selection
Crossing structures: C:4_H:10_N:2_O:4/0/ddfa0bbd69 + C:4_H:10_N:2_O:4/0/bd5a9d0741
Beginning crossover
geometries to cross: 
lattice_vector 4.75877 0.0 0.0
lattice_vector 0.032416424561 4.75870826493 0.0
lattice_vector 0.0137603096593 -1.29525629254 5.26638739235
atom -1.02745 0.82460 3.09027 C
atom -1.42983 0.87616 1.64432 C
atom -1.27731 -0.10077 1.19873 H
atom -2.48096 1.13435 1.59226 H
atom -0.63908 1.88308 0.93534 N
atom -0.87593 2.79999 1.28408 H
atom 0.34759 1.72620 1.07677 H
atom -0.84228 1.85297 -0.05606 H
atom -1.25311 -0.21647 3.74385 O
atom -0.49861 1.83681 3.59449 O
atom 1.49691 -2.82506 5.75363 C
atom 1.88249 -2.79134 4.30269 C
atom 2.93855 -2.55822 4.23441 H
atom 1.70178 -3.76723 3.86609 H
atom 1.10814 -1.76969 3.59731 N
atom 1.24645 -1.85310 2.59773 H
atom 0.12416 -1.85670 3.80485 H
atom 1.42225 -0.85571 3.88930 H
atom 1.70388 -3.86954 6.40786 O
atom 0.99117 -1.80064 6.25770 O

lattice_vector 6.53474 0.0 0.0
lattice_vector -0.793340033733 6.46373839861 0.0
lattice_vector -0.637640629394 -0.137071759419 4.64501119184
atom -2.08633 0.02183 2.28530 C
atom -2.16923 -1.44498 2.57258 C
atom -1.99552 -1.59146 3.62992 H
atom -3.15780 -1.81106 2.31469 H
atom -1.15078 -2.15221 1.80324 N
atom -1.31400 -2.02506 0.81643 H
atom -0.23727 -1.79514 2.03995 H
atom -1.18337 -3.14144 2.01869 H
atom -3.14419 0.65939 2.10172 O
atom -0.95350 0.54461 2.25327 O
atom 1.10314 2.77377 -0.03676 C
atom 1.02025 1.30697 0.25058 C
atom 1.19413 1.16052 1.30789 H
atom 0.03164 0.94090 -0.00715 H
atom 2.03854 0.59970 -0.51894 N
atom 1.87471 0.72633 -1.50572 H
atom 2.95208 0.95718 -0.28292 H
atom 2.00635 -0.38944 -0.30302 H
atom 0.04527 3.41131 -0.22036 O
atom 2.23597 3.29656 -0.06883 O

crossed_geometry: 
lattice_vector 4.8978407952 0.0 0.0
lattice_vector -0.544407869773 5.94974079492 0.0
lattice_vector -0.473258745786 -0.429341149446 4.80181629319
atom -1.25939 1.39111 3.09027 C
atom -1.66177 1.44268 1.64432 C
atom -1.50925 0.46574 1.19873 H
atom -2.71290 1.70086 1.59226 H
atom -0.87102 2.44960 0.93534 N
atom -1.10787 3.36650 1.28408 H
atom 0.11565 2.29271 1.07677 H
atom -1.07422 2.41948 -0.05606 H
atom -1.48505 0.35005 3.74385 O
atom -0.73055 2.40333 3.59449 O
atom 1.26497 -2.25854 5.75363 C
atom 1.65055 -2.22482 4.30269 C
atom 2.70661 -1.99170 4.23441 H
atom 1.46984 -3.20072 3.86609 H
atom 0.87620 -1.20317 3.59731 N
atom 1.01451 -1.28659 2.59773 H
atom -0.10778 -1.29019 3.80485 H
atom 1.19031 -0.28919 3.88930 H
atom 1.47194 -3.30302 6.40786 O
atom 0.75923 -1.23412 6.25770 O

Beginning mutation
Beginning relaxation
Success: 
  stoichiometry-- C:4_H:10_N:2_O:4
  cascade-- 0
  structure index-- 35f44b8e14
  child count-- 3
  collection count -- 6
  replica-- cd5f05fc39
Iteration time: -- 0:00:10.161335

Replica: cd5f05fc39
Beginning iteration
Beginning structure selection
Crossing structures: C:4_H:10_N:2_O:4/0/35f44b8e14 + C:4_H:10_N:2_O:4/0/ddfa0bbd69
Beginning crossover
geometries to cross: 
lattice_vector 4.759429 0.0 0.0
lattice_vector -4.86516013858e-05 4.75942899986 0.0
lattice_vector 3.59574725672e-06 -1.28626311931 5.26681795174
atom -0.96202 1.08376 3.32296 C
atom -1.34661 1.12178 1.87178 C
atom -1.17785 0.14331 1.43589 H
atom -2.39962 1.36774 1.80301 H
atom -0.55849 2.13256 1.16548 N
atom -0.84925 3.05095 1.46721 H
atom 0.42522 2.02161 1.36178 H
atom -0.70914 2.05878 0.16685 H
atom -1.18125 0.04212 3.97793 O
atom -0.44279 2.10162 3.82617 O
atom 1.58413 -2.57932 5.99075 C
atom 1.96872 -2.54129 4.53956 C
atom 3.02173 -2.29531 4.47080 H
atom 1.79998 -3.51977 4.10367 H
atom 1.18057 -1.53053 3.83327 N
atom 1.33124 -1.60428 2.83464 H
atom 0.19687 -1.64153 4.02955 H
atom 1.47128 -0.61213 4.13503 H
atom 1.80339 -3.62095 6.64572 O
atom 1.06488 -1.56147 6.49396 O

lattice_vector 4.75877 0.0 0.0
lattice_vector 0.032416424561 4.75870826493 0.0
lattice_vector 0.0137603096593 -1.29525629254 5.26638739235
atom -1.02745 0.82460 3.09027 C
atom -1.42983 0.87616 1.64432 C
atom -1.27731 -0.10077 1.19873 H
atom -2.48096 1.13435 1.59226 H
atom -0.63908 1.88308 0.93534 N
atom -0.87593 2.79999 1.28408 H
atom 0.34759 1.72620 1.07677 H
atom -0.84228 1.85297 -0.05606 H
atom -1.25311 -0.21647 3.74385 O
atom -0.49861 1.83681 3.59449 O
atom 1.49691 -2.82506 5.75363 C
atom 1.88249 -2.79134 4.30269 C
atom 2.93855 -2.55822 4.23441 H
atom 1.70178 -3.76723 3.86609 H
atom 1.10814 -1.76969 3.59731 N
atom 1.24645 -1.85310 2.59773 H
atom 0.12416 -1.85670 3.80485 H
atom 1.42225 -0.85571 3.88930 H
atom 1.70388 -3.86954 6.40786 O
atom 0.99117 -1.80064 6.25770 O

crossed_geometry: 
lattice_vector 4.75877 0.0 0.0
lattice_vector 0.032416424561 4.75870826493 0.0
lattice_vector 0.0137603096593 -1.29525629254 5.26638739235
atom -1.27307 1.40288 3.32296 C
atom -1.65766 1.44089 1.87178 C
atom -1.48890 0.46242 1.43589 H
atom -2.71067 1.68686 1.80301 H
atom -0.86954 2.45167 1.16548 N
atom -1.16029 3.37007 1.46721 H
atom 0.11417 2.34073 1.36178 H
atom -1.02019 2.37790 0.16685 H
atom -1.49230 0.36123 3.97793 O
atom -0.75384 2.42074 3.82617 O
atom 1.27308 -2.26020 5.99075 C
atom 1.65767 -2.22218 4.53956 C
atom 2.71068 -1.97619 4.47080 H
atom 1.48893 -3.20065 4.10367 H
atom 0.86952 -1.21142 3.83327 N
atom 1.02019 -1.28516 2.83464 H
atom -0.11418 -1.32241 4.02955 H
atom 1.16023 -0.29301 4.13503 H
atom 1.49234 -3.30184 6.64572 O
atom 0.75383 -1.24235 6.49396 O

Beginning mutation
[...]
atom -0.23727 -1.79514 2.03995 H
atom -1.18337 -3.14144 2.01869 H
atom -3.14419 0.65939 2.10172 O
atom -0.95350 0.54461 2.25327 O
atom 1.10314 2.77377 -0.03676 C
atom 1.02025 1.30697 0.25058 C
atom 1.19413 1.16052 1.30789 H
atom 0.03164 0.94090 -0.00715 H
atom 2.03854 0.59970 -0.51894 N
atom 1.87471 0.72633 -1.50572 H
atom 2.95208 0.95718 -0.28292 H
atom 2.00635 -0.38944 -0.30302 H
atom 0.04527 3.41131 -0.22036 O
atom 2.23597 3.29656 -0.06883 O

crossed_geometry: 
lattice_vector 5.50800971831 0.0 0.0
lattice_vector -0.290118952248 5.42468251329 0.0
lattice_vector -0.428233856178 -0.50939496519 4.84476587026
atom -1.94183 -0.08059 2.28530 C
atom -2.02474 -1.54740 2.57258 C
atom -1.85103 -1.69388 3.62992 H
atom -3.01330 -1.91348 2.31469 H
atom -1.00629 -2.25463 1.80324 N
atom -1.16950 -2.12747 0.81643 H
atom -0.09277 -1.89755 2.03995 H
atom -1.03888 -3.24386 2.01869 H
atom -2.99969 0.55697 2.10172 O
atom -0.80900 0.44220 2.25327 O
atom 1.26497 -2.25854 5.75363 C
atom 1.65055 -2.22482 4.30269 C
atom 2.70661 -1.99170 4.23441 H
atom 1.46984 -3.20072 3.86609 H
atom 0.87620 -1.20317 3.59731 N
atom 1.01451 -1.28659 2.59773 H
atom -0.10778 -1.29019 3.80485 H
atom 1.19031 -0.28919 3.88930 H
atom 1.47194 -3.30302 6.40786 O
atom 0.75923 -1.23412 6.25770 O

Beginning mutation
Beginning relaxation
Newly relaxed structure is not acceptable

Replica: cd5f05fc39
Beginning iteration
Beginning structure selection
Crossing structures: C:4_H:10_N:2_O:4/0/8df10ce06a + C:4_H:10_N:2_O:4/0/ddfa0bbd69
Beginning crossover
geometries to cross: 
lattice_vector 7.178584 0.0 0.0
lattice_vector -0.557209002757 7.13882170376 0.0
lattice_vector -0.928811461315 -1.05563841369 3.89156578653
atom -2.08101 -0.78731 2.11796 C
atom -2.10755 -2.27329 2.31489 C
atom -1.63659 -2.48804 3.26041 H
atom -3.13413 -2.61046 2.32543 H
atom -1.37627 -2.95122 1.24439 N
atom -1.88269 -2.86774 0.37174 H
atom -0.45792 -2.54088 1.13206 H
atom -1.27623 -3.93393 1.46888 H
atom -3.10779 -0.11449 2.35044 O
atom -0.99628 -0.27978 1.77281 O
atom 1.69409 2.56342 0.23280 C
atom 1.66753 1.07744 0.42972 C
atom 2.13848 0.86268 1.37525 H
atom 0.64095 0.74027 0.44025 H
atom 2.39883 0.39951 -0.64077 N
atom 1.89240 0.48295 -1.51341 H
atom 3.31716 0.80988 -0.75312 H
atom 2.49890 -0.58319 -0.41625 H
atom 0.66731 3.23624 0.46529 O
atom 2.77882 3.07094 -0.11236 O

lattice_vector 4.75877 0.0 0.0
lattice_vector 0.032416424561 4.75870826493 0.0
lattice_vector 0.0137603096593 -1.29525629254 5.26638739235
atom -1.02745 0.82460 3.09027 C
atom -1.42983 0.87616 1.64432 C
atom -1.27731 -0.10077 1.19873 H
atom -2.48096 1.13435 1.59226 H
atom -0.63908 1.88308 0.93534 N
atom -0.87593 2.79999 1.28408 H
atom 0.34759 1.72620 1.07677 H
atom -0.84228 1.85297 -0.05606 H
atom -1.25311 -0.21647 3.74385 O
atom -0.49861 1.83681 3.59449 O
atom 1.49691 -2.82506 5.75363 C
atom 1.88249 -2.79134 4.30269 C
atom 2.93855 -2.55822 4.23441 H
atom 1.70178 -3.76723 3.86609 H
atom 1.10814 -1.76969 3.59731 N
atom 1.24645 -1.85310 2.59773 H
atom 0.12416 -1.85670 3.80485 H
atom 1.42225 -0.85571 3.88930 H
atom 1.70388 -3.86954 6.40786 O
atom 0.99117 -1.80064 6.25770 O

crossed_geometry: 
lattice_vector 7.178584 0.0 0.0
lattice_vector -0.557209002757 7.13882170376 0.0
lattice_vector -0.928811461315 -1.05563841369 3.89156578653
atom -1.25939 1.39111 3.09027 C
atom -1.66177 1.44268 1.64432 C
atom -1.50925 0.46574 1.19873 H
atom -2.71290 1.70086 1.59226 H
atom -0.87102 2.44960 0.93534 N
atom -1.10787 3.36650 1.28408 H
atom 0.11565 2.29271 1.07677 H
atom -1.07422 2.41948 -0.05606 H
atom -1.48505 0.35005 3.74385 O
atom -0.73055 2.40333 3.59449 O
atom 1.61218 2.97277 0.23280 C
atom 1.58563 1.48679 0.42972 C
atom 2.05658 1.27203 1.37525 H
atom 0.55905 1.14962 0.44025 H
atom 2.31693 0.80886 -0.64077 N
atom 1.81050 0.89230 -1.51341 H
atom 3.23526 1.21923 -0.75312 H
atom 2.41700 -0.17384 -0.41625 H
atom 0.58540 3.64559 0.46529 O
atom 2.69691 3.48029 -0.11236 O

Beginning mutation
Beginning relaxation
Newly relaxed structure is not acceptable

Replica: cd5f05fc39
Beginning iteration
Beginning structure selection
Crossing structures: C:4_H:10_N:2_O:4/0/bd5a9d0741 + C:4_H:10_N:2_O:4/0/504537ac92
Beginning crossover
geometries to cross: 
lattice_vector 6.53474 0.0 0.0
lattice_vector -0.793340033733 6.46373839861 0.0
lattice_vector -0.637640629394 -0.137071759419 4.64501119184
atom -2.08633 0.02183 2.28530 C
atom -2.16923 -1.44498 2.57258 C
atom -1.99552 -1.59146 3.62992 H
atom -3.15780 -1.81106 2.31469 H
atom -1.15078 -2.15221 1.80324 N
atom -1.31400 -2.02506 0.81643 H
atom -0.23727 -1.79514 2.03995 H
atom -1.18337 -3.14144 2.01869 H
atom -3.14419 0.65939 2.10172 O
atom -0.95350 0.54461 2.25327 O
atom 1.10314 2.77377 -0.03676 C
atom 1.02025 1.30697 0.25058 C
atom 1.19413 1.16052 1.30789 H
atom 0.03164 0.94090 -0.00715 H
atom 2.03854 0.59970 -0.51894 N
atom 1.87471 0.72633 -1.50572 H
atom 2.95208 0.95718 -0.28292 H
atom 2.00635 -0.38944 -0.30302 H
atom 0.04527 3.41131 -0.22036 O
atom 2.23597 3.29656 -0.06883 O

lattice_vector 6.463902 0.0 0.0
lattice_vector 3.30439220398e-16 6.463902 0.0
lattice_vector -0.495178511818 2.65849157315e-16 4.6791132194
atom -0.28161 1.53963 2.45692 C
atom -0.62209 0.09536 2.67476 C
atom -0.56218 -0.11556 3.73414 H
atom -1.63285 -0.10119 2.32911 H
atom 0.32257 -0.74686 1.95829 N
atom 0.33610 -0.51369 0.97661 H
atom 1.24288 -0.59525 2.34551 H
atom 0.06306 -1.72015 2.07125 H
atom -1.24127 2.31628 2.29894 O
atom 0.91445 1.90411 2.43328 O
atom 3.14818 4.18532 0.07266 C
atom 2.86656 2.74286 0.36677 C
atom 3.09423 2.54886 1.40426 H
atom 1.81614 2.53011 0.18382 H
atom 3.67856 1.90465 -0.49947 N
atom 3.29566 1.93607 -1.43346 H
atom 4.63177 2.24226 -0.51427 H
atom 3.64280 0.94297 -0.18257 H
atom 2.16294 4.91295 -0.15524 O
atom 4.32777 4.59471 0.05378 O

crossed_geometry: 
lattice_vector 6.53474 0.0 0.0
lattice_vector -0.793340033733 6.46373839861 0.0
lattice_vector -0.637640629394 -0.137071759419 4.64501119184
atom -1.84179 0.00946 2.45692 C
atom -2.18228 -1.43481 2.67476 C
atom -2.12237 -1.64573 3.73414 H
atom -3.19303 -1.63136 2.32911 H
atom -1.23762 -2.27704 1.95829 N
atom -1.22409 -2.04386 0.97661 H
atom -0.31730 -2.12542 2.34551 H
atom -1.49712 -3.25032 2.07125 H
atom -2.80145 0.78611 2.29894 O
atom -0.64573 0.37393 2.43328 O
atom 1.58799 2.65515 0.07266 C
atom 1.30638 1.21269 0.36677 C
atom 1.53405 1.01869 1.40426 H
atom 0.25596 0.99994 0.18382 H
atom 2.11838 0.37447 -0.49947 N
atom 1.73547 0.40590 -1.43346 H
atom 3.07158 0.71209 -0.51427 H
atom 2.08262 -0.58720 -0.18257 H
atom 0.60276 3.38278 -0.15524 O
atom 2.76759 3.06454 0.05378 O

Beginning mutation
Beginning relaxation
Newly relaxed structure is not acceptable

Replica: cd5f05fc39
Beginning iteration
Beginning structure selection
Crossing structures: C:4_H:10_N:2_O:4/0/35f44b8e14 + C:4_H:10_N:2_O:4/0/5e59e45c79
Beginning crossover
geometries to cross: 
lattice_vector 4.759429 0.0 0.0
lattice_vector -4.86516013858e-05 4.75942899986 0.0
lattice_vector 3.59574725672e-06 -1.28626311931 5.26681795174
atom -0.96202 1.08376 3.32296 C
atom -1.34661 1.12178 1.87178 C
atom -1.17785 0.14331 1.43589 H
atom -2.39962 1.36774 1.80301 H
atom -0.55849 2.13256 1.16548 N
atom -0.84925 3.05095 1.46721 H
atom 0.42522 2.02161 1.36178 H
atom -0.70914 2.05878 0.16685 H
atom -1.18125 0.04212 3.97793 O
atom -0.44279 2.10162 3.82617 O
atom 1.58413 -2.57932 5.99075 C
atom 1.96872 -2.54129 4.53956 C
atom 3.02173 -2.29531 4.47080 H
atom 1.79998 -3.51977 4.10367 H
atom 1.18057 -1.53053 3.83327 N
atom 1.33124 -1.60428 2.83464 H
atom 0.19687 -1.64153 4.02955 H
atom 1.47128 -0.61213 4.13503 H
atom 1.80339 -3.62095 6.64572 O
atom 1.06488 -1.56147 6.49396 O

lattice_vector 4.946704 0.0 0.0
lattice_vector 3.39030913714e-16 4.946704 0.0
lattice_vector 3.25416086622e-16 -1.34965075484e-06 5.314448
atom 1.89493 -0.00870 1.78607 C
atom 2.34818 0.45279 0.44043 C
atom 1.55637 0.28869 -0.28470 H
atom 2.58533 1.50430 0.51464 H
atom 3.53869 -0.28385 0.03707 N
atom 4.28482 -0.15408 0.70998 H
atom 3.30807 -1.26855 -0.02782 H
atom 3.82030 0.03543 -0.87889 H
atom 0.74957 -0.49146 1.89031 O
atom 2.69926 0.15619 2.72618 O
atom 0.57842 2.77711 4.44328 C
atom 0.12518 2.31563 3.09764 C
atom 0.91699 2.47976 2.37250 H
atom -0.11194 1.26411 3.17183 H
atom -1.06535 3.05225 2.69429 N
atom -1.81147 2.92244 3.36720 H
atom -0.83476 4.03696 2.62943 H
atom -1.34695 2.73299 1.77833 H
atom 1.72379 3.25985 4.54753 O
atom -0.22591 2.61222 5.38339 O

crossed_geometry: 
lattice_vector 4.759429 0.0 0.0
lattice_vector -4.86516013858e-05 4.75942899986 0.0
lattice_vector 3.59574725672e-06 -1.28626311931 5.26681795174
atom -1.27307 1.40288 3.32296 C
atom -1.65766 1.44089 1.87178 C
atom -1.48890 0.46242 1.43589 H
atom -2.71067 1.68686 1.80301 H
atom -0.86954 2.45167 1.16548 N
atom -1.16029 3.37007 1.46721 H
atom 0.11417 2.34073 1.36178 H
atom -1.02019 2.37790 0.16685 H
atom -1.49230 0.36123 3.97793 O
atom -0.75384 2.42074 3.82617 O
atom 1.27308 -2.26020 5.99075 C
atom 1.65767 -2.22218 4.53956 C
atom 2.71068 -1.97619 4.47080 H
atom 1.48893 -3.20065 4.10367 H
atom 0.86952 -1.21142 3.83327 N
atom 1.02019 -1.28516 2.83464 H
atom -0.11418 -1.32241 4.02955 H
atom 1.16023 -0.29301 4.13503 H
atom 1.49234 -3.30184 6.64572 O
atom 0.75383 -1.24235 6.49396 O

Beginning mutation
Structure to be relaxed is not acceptable

Replica: cd5f05fc39
Beginning iteration
Beginning structure selection
Crossing structures: C:4_H:10_N:2_O:4/0/5e59e45c79 + C:4_H:10_N:2_O:4/0/0a82ac3500
Beginning crossover
Crossover failure

Replica: cd5f05fc39
Beginning iteration
Beginning structure selection
Crossing structures: C:4_H:10_N:2_O:4/0/8df10ce06a + C:4_H:10_N:2_O:4/0/a91529895b
Beginning crossover
geometries to cross: 
lattice_vector 7.178584 0.0 0.0
lattice_vector -0.557209002757 7.13882170376 0.0
lattice_vector -0.928811461315 -1.05563841369 3.89156578653
atom -2.08101 -0.78731 2.11796 C
atom -2.10755 -2.27329 2.31489 C
atom -1.63659 -2.48804 3.26041 H
atom -3.13413 -2.61046 2.32543 H
atom -1.37627 -2.95122 1.24439 N
atom -1.88269 -2.86774 0.37174 H
atom -0.45792 -2.54088 1.13206 H
atom -1.27623 -3.93393 1.46888 H
atom -3.10779 -0.11449 2.35044 O
atom -0.99628 -0.27978 1.77281 O
atom 1.69409 2.56342 0.23280 C
atom 1.66753 1.07744 0.42972 C
atom 2.13848 0.86268 1.37525 H
atom 0.64095 0.74027 0.44025 H
atom 2.39883 0.39951 -0.64077 N
atom 1.89240 0.48295 -1.51341 H
atom 3.31716 0.80988 -0.75312 H
atom 2.49890 -0.58319 -0.41625 H
atom 0.66731 3.23624 0.46529 O
atom 2.77882 3.07094 -0.11236 O

lattice_vector 4.830373 0.0 0.0
lattice_vector 3.89601111244e-16 4.830373 0.0
lattice_vector 0.0483795758802 4.32335796539e-16 5.40837161911
atom 1.20497 4.69113 2.09160 C
atom 0.86416 4.38669 0.66070 C
atom 1.14782 3.36382 0.42816 H
atom -0.20567 4.49993 0.52303 H
atom 1.57521 5.30845 -0.21415 N
atom 1.19223 6.23368 -0.08161 H
atom 2.55956 5.32993 0.01499 H
atom 1.45770 5.02600 -1.18031 H
atom 1.13651 3.74374 2.89496 O
atom 1.57784 5.84018 2.41895 O
atom 3.82686 1.43234 4.70395 C
atom 4.10827 1.20218 3.24538 C
atom 5.09085 1.58654 3.01247 H
atom 4.08130 0.13475 3.04036 H
atom 3.09919 1.85646 2.42565 N
atom 2.24614 1.31592 2.46638 H
atom 2.91492 2.78841 2.77554 H
atom 3.40115 1.88697 1.45874 H
atom 3.98464 0.45537 5.46359 O
atom 3.40898 2.54425 5.09198 O

crossed_geometry: 
lattice_vector 6.21696626442 0.0 0.0
lattice_vector -0.158770426647 5.4881394463 0.0
lattice_vector -0.4237086359 -0.50998671911 4.67559151178
atom -1.22866 1.50979 2.09160 C
atom -1.56948 1.20535 0.66070 C
atom -1.28581 0.18248 0.42816 H
atom -2.63930 1.31859 0.52303 H
atom -0.85842 2.12711 -0.21415 N
atom -1.24140 3.05234 -0.08161 H
atom 0.12593 2.14860 0.01499 H
atom -0.97593 1.84466 -1.18031 H
atom -1.29713 0.56240 2.89496 O
atom -0.85579 2.65884 2.41895 O
atom 1.39323 -1.74899 4.70395 C
atom 1.67464 -1.97915 3.24538 C
atom 2.65721 -1.59480 3.01247 H
atom 1.64766 -3.04658 3.04036 H
atom 0.66556 -1.32487 2.42565 N
atom -0.18749 -1.86542 2.46638 H
atom 0.48129 -0.39292 2.77554 H
atom 0.96752 -1.29436 1.45874 H
atom 1.55100 -2.72597 5.46359 O
atom 0.97535 -0.63709 5.09198 O

Beginning mutation
Beginning relaxation
Newly relaxed structure is not acceptable

Replica: cd5f05fc39
Beginning iteration
Beginning structure selection
Crossing structures: C:4_H:10_N:2_O:4/0/0a82ac3500 + C:4_H:10_N:2_O:4/0/35f44b8e14
Beginning crossover
geometries to cross: 
lattice_vector 5.860393 0.0 0.0
lattice_vector -1.73286606175e-05 5.86039299997 0.0
lattice_vector -2.54892382546e-05 -2.14792592769 4.94246948995
atom -1.47464 0.05382 2.66663 C
atom -1.83539 0.57784 1.30237 C
atom -1.56243 -0.16134 0.55811 H
atom -2.89782 0.75801 1.27781 H
atom -1.13772 1.83479 1.03203 N
atom -1.39202 2.52285 1.72877 H
atom -0.13734 1.68816 1.06541 H
atom -1.38311 2.18314 0.11306 H
atom -1.69111 -1.14581 2.94404 O
atom -0.97921 0.85160 3.48595 O
atom 1.41535 -3.71494 5.05432 C
atom 1.77612 -3.19091 3.69007 C
atom 2.83854 -3.01071 3.66556 H
atom 1.50321 -3.93010 2.94579 H
atom 1.07842 -1.93398 3.41971 N
atom 1.32383 -1.58562 2.50075 H
atom 0.07804 -2.08064 3.45305 H
atom 1.33268 -1.24592 4.11647 H
atom 1.63184 -4.91457 5.33174 O
atom 0.91988 -2.91717 5.87362 O

lattice_vector 4.759429 0.0 0.0
lattice_vector -4.86516013858e-05 4.75942899986 0.0
lattice_vector 3.59574725672e-06 -1.28626311931 5.26681795174
atom -0.96202 1.08376 3.32296 C
atom -1.34661 1.12178 1.87178 C
atom -1.17785 0.14331 1.43589 H
atom -2.39962 1.36774 1.80301 H
atom -0.55849 2.13256 1.16548 N
atom -0.84925 3.05095 1.46721 H
atom 0.42522 2.02161 1.36178 H
atom -0.70914 2.05878 0.16685 H
atom -1.18125 0.04212 3.97793 O
atom -0.44279 2.10162 3.82617 O
atom 1.58413 -2.57932 5.99075 C
atom 1.96872 -2.54129 4.53956 C
atom 3.02173 -2.29531 4.47080 H
atom 1.79998 -3.51977 4.10367 H
atom 1.18057 -1.53053 3.83327 N
atom 1.33124 -1.60428 2.83464 H
atom 0.19687 -1.64153 4.02955 H
atom 1.47128 -0.61213 4.13503 H
atom 1.80339 -3.62095 6.64572 O
atom 1.06488 -1.56147 6.49396 O

crossed_geometry: 
lattice_vector 5.860393 0.0 0.0
lattice_vector -1.73286606175e-05 5.86039299997 0.0
lattice_vector -2.54892382546e-05 -2.14792592769 4.94246948995
atom -1.27307 1.40288 3.32296 C
atom -1.65766 1.44089 1.87178 C
atom -1.48890 0.46242 1.43589 H
atom -2.71067 1.68686 1.80301 H
atom -0.86954 2.45167 1.16548 N
atom -1.16029 3.37007 1.46721 H
atom 0.11417 2.34073 1.36178 H
atom -1.02019 2.37790 0.16685 H
atom -1.49230 0.36123 3.97793 O
atom -0.75384 2.42074 3.82617 O
atom 1.44499 -2.74687 5.05432 C
atom 1.80577 -2.22284 3.69007 C
atom 2.86819 -2.04263 3.66556 H
atom 1.53285 -2.96202 2.94579 H
atom 1.10806 -0.96590 3.41971 N
atom 1.35347 -0.61754 2.50075 H
atom 0.10768 -1.11257 3.45305 H
atom 1.36232 -0.27785 4.11647 H
atom 1.66148 -3.94650 5.33174 O
atom 0.94953 -1.94909 5.87362 O

Beginning mutation
Structure to be relaxed is not acceptable

Replica: e7237f671b
Beginning iteration
Beginning structure selection
Crossing structures: C:4_H:10_N:2_O:4/0/0a82ac3500 + C:4_H:10_N:2_O:4/0/35f44b8e14
Beginning crossover
geometries to cross: 
lattice_vector 5.860393 0.0 0.0
lattice_vector -1.73286606175e-05 5.86039299997 0.0
lattice_vector -2.54892382546e-05 -2.14792592769 4.94246948995
atom -1.47464 0.05382 2.66663 C
atom -1.83539 0.57784 1.30237 C
atom -1.56243 -0.16134 0.55811 H
atom -2.89782 0.75801 1.27781 H
atom -1.13772 1.83479 1.03203 N
atom -1.39202 2.52285 1.72877 H
atom -0.13734 1.68816 1.06541 H
atom -1.38311 2.18314 0.11306 H
atom -1.69111 -1.14581 2.94404 O
atom -0.97921 0.85160 3.48595 O
atom 1.41535 -3.71494 5.05432 C
atom 1.77612 -3.19091 3.69007 C
atom 2.83854 -3.01071 3.66556 H
atom 1.50321 -3.93010 2.94579 H
atom 1.07842 -1.93398 3.41971 N
atom 1.32383 -1.58562 2.50075 H
atom 0.07804 -2.08064 3.45305 H
atom 1.33268 -1.24592 4.11647 H
atom 1.63184 -4.91457 5.33174 O
atom 0.91988 -2.91717 5.87362 O

lattice_vector 4.759429 0.0 0.0
lattice_vector -4.86516013858e-05 4.75942899986 0.0
lattice_vector 3.59574725672e-06 -1.28626311931 5.26681795174
atom -0.96202 1.08376 3.32296 C
atom -1.34661 1.12178 1.87178 C
atom -1.17785 0.14331 1.43589 H
atom -2.39962 1.36774 1.80301 H
atom -0.55849 2.13256 1.16548 N
atom -0.84925 3.05095 1.46721 H
atom 0.42522 2.02161 1.36178 H
atom -0.70914 2.05878 0.16685 H
atom -1.18125 0.04212 3.97793 O
atom -0.44279 2.10162 3.82617 O
atom 1.58413 -2.57932 5.99075 C
atom 1.96872 -2.54129 4.53956 C
atom 3.02173 -2.29531 4.47080 H
atom 1.79998 -3.51977 4.10367 H
atom 1.18057 -1.53053 3.83327 N
atom 1.33124 -1.60428 2.83464 H
atom 0.19687 -1.64153 4.02955 H
atom 1.47128 -0.61213 4.13503 H
atom 1.80339 -3.62095 6.64572 O
atom 1.06488 -1.56147 6.49396 O

crossed_geometry: 
lattice_vector 5.860393 0.0 0.0
lattice_vector -1.73286606175e-05 5.86039299997 0.0
lattice_vector -2.54892382546e-05 -2.14792592769 4.94246948995
atom -1.27307 1.40288 3.32296 C
atom -1.65766 1.44089 1.87178 C
atom -1.48890 0.46242 1.43589 H
atom -2.71067 1.68686 1.80301 H
atom -0.86954 2.45167 1.16548 N
atom -1.16029 3.37007 1.46721 H
atom 0.11417 2.34073 1.36178 H
atom -1.02019 2.37790 0.16685 H
atom -1.49230 0.36123 3.97793 O
atom -0.75384 2.42074 3.82617 O
atom 1.44499 -2.74687 5.05432 C
atom 1.80577 -2.22284 3.69007 C
atom 2.86819 -2.04263 3.66556 H
atom 1.53285 -2.96202 2.94579 H
atom 1.10806 -0.96590 3.41971 N
atom 1.35347 -0.61754 2.50075 H
atom 0.10768 -1.11257 3.45305 H
atom 1.36232 -0.27785 4.11647 H
atom 1.66148 -3.94650 5.33174 O
atom 0.94953 -1.94909 5.87362 O

Beginning mutation
Structure to be relaxed is not acceptable

Replica: e7237f671b
Beginning iteration
Beginning structure selection
Crossing structures: C:4_H:10_N:2_O:4/0/ddfa0bbd69 + C:4_H:10_N:2_O:4/0/35f44b8e14
Beginning crossover
geometries to cross: 
lattice_vector 4.75877 0.0 0.0
lattice_vector 0.032416424561 4.75870826493 0.0
lattice_vector 0.0137603096593 -1.29525629254 5.26638739235
atom -1.02745 0.82460 3.09027 C
atom -1.42983 0.87616 1.64432 C
atom -1.27731 -0.10077 1.19873 H
atom -2.48096 1.13435 1.59226 H
atom -0.63908 1.88308 0.93534 N
atom -0.87593 2.79999 1.28408 H
atom 0.34759 1.72620 1.07677 H
atom -0.84228 1.85297 -0.05606 H
atom -1.25311 -0.21647 3.74385 O
atom -0.49861 1.83681 3.59449 O
atom 1.49691 -2.82506 5.75363 C
atom 1.88249 -2.79134 4.30269 C
atom 2.93855 -2.55822 4.23441 H
atom 1.70178 -3.76723 3.86609 H
atom 1.10814 -1.76969 3.59731 N
atom 1.24645 -1.85310 2.59773 H
atom 0.12416 -1.85670 3.80485 H
atom 1.42225 -0.85571 3.88930 H
atom 1.70388 -3.86954 6.40786 O
atom 0.99117 -1.80064 6.25770 O

lattice_vector 4.759429 0.0 0.0
lattice_vector -4.86516013858e-05 4.75942899986 0.0
lattice_vector 3.59574725672e-06 -1.28626311931 5.26681795174
atom -0.96202 1.08376 3.32296 C
atom -1.34661 1.12178 1.87178 C
atom -1.17785 0.14331 1.43589 H
atom -2.39962 1.36774 1.80301 H
atom -0.55849 2.13256 1.16548 N
atom -0.84925 3.05095 1.46721 H
atom 0.42522 2.02161 1.36178 H
atom -0.70914 2.05878 0.16685 H
atom -1.18125 0.04212 3.97793 O
atom -0.44279 2.10162 3.82617 O
atom 1.58413 -2.57932 5.99075 C
atom 1.96872 -2.54129 4.53956 C
atom 3.02173 -2.29531 4.47080 H
atom 1.79998 -3.51977 4.10367 H
atom 1.18057 -1.53053 3.83327 N
atom 1.33124 -1.60428 2.83464 H
atom 0.19687 -1.64153 4.02955 H
atom 1.47128 -0.61213 4.13503 H
atom 1.80339 -3.62095 6.64572 O
atom 1.06488 -1.56147 6.49396 O

crossed_geometry: 
lattice_vector 4.75877 0.0 0.0
lattice_vector 0.032416424561 4.75870826493 0.0
lattice_vector 0.0137603096593 -1.29525629254 5.26638739235
atom -1.27307 1.40288 3.32296 C
atom -1.65766 1.44089 1.87178 C
atom -1.48890 0.46242 1.43589 H
atom -2.71067 1.68686 1.80301 H
atom -0.86954 2.45167 1.16548 N
atom -1.16029 3.37007 1.46721 H
atom 0.11417 2.34073 1.36178 H
atom -1.02019 2.37790 0.16685 H
atom -1.49230 0.36123 3.97793 O
atom -0.75384 2.42074 3.82617 O
atom 1.27308 -2.26020 5.99075 C
atom 1.65767 -2.22218 4.53956 C
atom 2.71068 -1.97619 4.47080 H
atom 1.48893 -3.20065 4.10367 H
atom 0.86952 -1.21142 3.83327 N
atom 1.02019 -1.28516 2.83464 H
atom -0.11418 -1.32241 4.02955 H
atom 1.16023 -0.29301 4.13503 H
atom 1.49234 -3.30184 6.64572 O
atom 0.75383 -1.24235 6.49396 O

Beginning mutation
Structure to be relaxed is not acceptable

