# Geometry of simplistic 'cubic' B-glycine with H, C, N, O (1=oh, 1=0,2=c,2=c3,4=hc,3=n4,3=hn)

20 atoms
18 bonds
4 atom types
6 bond types

0.0 5.06000000 xlo xhi
0.0 6.18000000 ylo yhi
0.0 5.39000000 zlo zhi


Masses

1 15.999
2 12.011
3 14.007
4 1.008

Atoms

1 0  1 0.00000 0.42016629196701544 2.50452757 -2.01905557071794
2 0  1 0.00000 2.505934286595373 2.16306654 -1.2585158619529708
3 0  2 0.00000 1.660379091446696 2.34322604 -2.186318455002943
4 0  2 0.00000 0.05618203158455648 2.44095355 1.3315988064092568
5 0  4 0.00000 0.20769318293571726 -2.6724666 1.1140469839535907
6 0  4 0.00000 -0.6658566093264604 2.04532327 0.6119756798059202
7 0  3 0.00000 1.3480976606923916 1.74766477 1.1547277277034207
8 0  4 0.00000 1.7513832876769047 1.92269993 0.17961953748857268
9 0  4 0.00000 -2.9907092328575384 2.07827775 1.8499566889593861
10 0 4 0.00000 1.2421054898261557 0.72784374 1.2788330111734212
11 0 1 0.00000 -0.4201512087099076 -0.58544329 2.0190540782518553
12 0 1 0.00000 -2.5059119405444847 -0.92692508 1.258501614882757
13 0 2 0.00000 -1.6603568846023347 -0.74680766 2.1863120583035185
14 0 2 0.00000 -0.05616889950402382 -0.6490608 -1.3316085308198244
15 0 4 0.00000 -0.20768160615651382 0.41751772 -1.1140513013467017
16 0 4 0.00000 0.6658688413082391 -1.04469347 -0.611985968062418
17 0 3 0.00000 -1.3480810531529148 -1.3423559 -1.1547470949188254
18 0 4 0.00000 -1.7513587017534895 -1.1673539 -0.17963110458284165
19 0 4 0.00000 2.99072186444364 -1.01172574 -1.849962990636349
20 0 4 0.00000 -1.2420863452364053 -2.36217396 -1.2788804495248183

Bonds

1 1 1 3  
2 2 2 3
3 3 3 4
4 4 4 5
5 4 4 6
6 5 4 7
7 6 7 8
8 6 7 9
9 6 7 10
10 1 11 13
11 2 12 13
12 3 13 14
13 4 14 15
14 4 14 16
15 5 14 17
16 6 17 18
17 6 17 19
18 6 17 20
