
Beginning iteration
No restart file found
--Structure selection--
--Crossover--
Attempting crossover: 1
cross_type:     [1, 3]
Random Frac: [0.36686534083361233, 0.48096824411058003, 0.3685711395215968]
Parent A lattice vectors:  8.51957080043 7.3416248421 9.15435711914
Parent B lattice vectors:  5.96761715864 11.040738052 7.9200822439
Child lattice vectors:  6.89248811308 9.2510561697 8.2903409842
Child angles:    97.9816944028 78.4762069818 105.681466051
No volume check is called.
No lattice vector length check is called.
No center of mass distance check is called.
The new structure has passed the interatomic distance check.
The new structure has passed through all the cell check being called.
Crossover: 1 successful
post crossover geo: 
lattice_vector 6.87878538824 -0.403061697794 -0.162003824759
lattice_vector -1.96832824481 9.03313834385 0.331867197101
lattice_vector 1.78488867342 -1.08476473956 8.02291789298
atom -3.54189 0.77295 3.23733 S
atom -0.97542 0.10859 4.24583 C
atom -2.57464 -1.92030 3.31440 C
atom -0.88842 -1.56881 3.73481 S
atom -3.59840 -0.97061 3.03346 C
atom -2.03184 0.98062 4.13952 C
atom -1.99301 2.20307 4.84789 C
atom 0.23614 0.55730 4.83872 C
atom -2.00994 3.16955 5.50824 N
atom 1.25640 0.93136 5.27122 N
atom -4.72391 -1.62576 2.55650 C
atom -5.93241 -1.05045 2.13255 C
atom -6.93788 -0.57018 1.77592 N
atom -2.87510 -3.19303 3.13689 N
atom -4.42245 -3.34683 2.53624 S
atom 2.62491 -0.07119 9.15417 S
atom 3.73082 1.86633 7.59064 C
atom 4.37947 -0.83658 7.24577 C
atom 5.13228 0.76782 7.42512 S
atom 3.07224 -1.04479 7.72183 C
atom 2.63332 1.50617 8.35799 C
atom 1.49006 2.30631 8.53793 C
atom 3.81932 3.14992 7.04373 C
atom 0.50482 2.90912 8.72999 N
atom 3.82653 4.31155 6.85752 N
atom 2.04633 -1.76532 7.03946 C
atom 0.71153 -1.62999 7.56372 C
atom -0.39663 -1.54805 7.92997 N
atom 5.21145 -1.69084 6.61347 N
atom 2.22631 -2.70793 5.65911 S

--Mutation--
Mutation Choice:    Rot_mol
--Cell Checks--
Cell checked! Reasonable angles observed!
No volume check is called.
No lattice vector length check is called.
No center of mass distance check is called.
The new structure has passed the interatomic distance check.
The new structure has passed through all the cell check being called.
pre relax geo: 
lattice_vector 6.89248811308 -6.76542155631e-17 2.77555756156e-17
lattice_vector -2.50045892273 8.90672473083 0.0
lattice_vector 1.65620160272 -0.73071410651 8.09029089588
atom 2.81751 0.90944 2.30414 S
atom 5.21334 0.88196 3.82219 C
atom 4.59216 -1.33670 2.32783 C
atom 5.95059 -0.57362 3.17399 S
atom 3.38512 -0.70553 1.91115 C
atom 3.96837 1.39972 3.55813 C
atom 3.46072 2.43204 4.37927 C
atom 6.06803 1.56278 4.73144 C
atom 2.99606 3.21617 5.11390 N
atom 6.80189 2.14431 5.43226 N
atom 2.65625 -1.57433 1.11276 C
atom 1.43090 -1.32440 0.47462 C
atom 0.41163 -1.11426 -0.05993 N
atom 4.77275 -2.58858 1.95123 N
atom 3.51143 -3.09280 0.98503 S
atom 2.55430 -0.32903 8.88559 S
atom 4.15878 1.43987 7.57476 C
atom 4.03205 -1.25455 6.82017 C
atom 5.20040 0.03566 7.19869 S
atom 2.71722 -1.16366 7.31191 C
atom 3.00250 1.28541 8.32456 C
atom 2.12602 2.33305 8.66197 C
atom 4.60170 2.71615 7.21491 C
atom 1.34649 3.14801 8.97686 N
atom 4.93174 3.84525 7.19737 N
atom 1.53328 -1.46436 6.57358 C
atom 0.28727 -1.04674 7.16343 C
atom -0.75546 -0.71865 7.58052 N
atom 4.59561 -2.20068 6.03978 N
atom 1.44784 -2.20376 5.06618 S

--SPE Check and Full Relaxation--
Replica a642683130 executing FHI-aims and checking the SPE.
Aims relaxation being called. out_location=/lustre/project/nmarom/fcurtis/gator/run_calcs/tmp/a642683130
Binary location is/home/fcurtis/fhi-aims.150205/bin/aims.150205.scalapack.mpi.x
SPE extracted
Structure passed SPE check
Replica a642683130 executing FHI-aims for a full unit cell relax
Aims relaxation being called. out_location=/lustre/project/nmarom/fcurtis/gator/run_calcs/tmp/a642683130
Binary location is/home/fcurtis/fhi-aims.150205/bin/aims.150205.scalapack.mpi.x
