
Beginning iteration
No restart file found
--Structure selection--
--Crossover--
Attempting crossover: 1
cross_type:     [3, 1]
Parent A lattice vectors:  6.85465134127 10.0625833458 7.4988204336
Parent B lattice vectors:  9.81812257942 12.7584168086 3.89695098736
Child lattice vectors:  6.85465134127 10.0625833458 7.4988204336
Child angles:    84.3294095035 91.4865309476 81.4382639009
No volume check is called.
No lattice vector length check is called.
No center of mass distance check is called.
The new structure has passed the interatomic distance check.
The new structure has passed through all the cell check being called.
Crossover: 1 successful
post crossover geo: 
lattice_vector 6.85465134127 9.13440330319e-18 -6.93889390391e-18
lattice_vector 1.49806697414 9.95044616751 0.0
lattice_vector -0.194534015984 0.778588634544 7.45575376137
atom -1.02801 -1.77819 5.55306 S
atom -2.75396 -3.57351 4.23611 C
atom -3.46053 -0.92303 4.35782 C
atom -4.18643 -2.53535 4.20572 S
atom -2.15924 -0.63327 4.84715 C
atom -1.52410 -3.28763 4.77084 C
atom -0.48939 -4.25785 4.77986 C
atom -2.98473 -4.85269 3.67194 C
atom 0.39755 -5.01997 4.83048 N
atom -3.17742 -5.92277 3.24159 N
atom -1.92249 0.73303 4.77022 C
atom -0.76061 1.42081 5.16495 C
atom 0.19785 1.99053 5.52007 N
atom -4.20051 0.09660 3.97431 N
atom -3.36096 1.52428 4.16672 S
atom 2.66518 4.69906 1.79928 S
atom 4.73158 2.90668 1.10677 C
atom 2.31078 1.86689 1.84822 C
atom 4.04687 1.47856 1.90025 S
atom 1.76226 3.18050 1.81665 C
atom 4.18607 4.16321 1.06613 C
atom 4.85304 5.20100 0.36763 C
atom 5.95482 2.62121 0.45061 C
atom 5.35765 6.06786 -0.23129 N
atom 6.94497 2.32535 -0.09730 N
atom 0.37137 3.09966 1.84010 C
atom -0.58624 4.13172 1.80785 C
atom -1.41310 4.95599 1.75993 N
atom 1.46802 0.85430 1.88776 N
atom -0.09427 1.41695 1.93762 S

--Mutation--
No mutation applied.
--Cell Checks--
Cell checked! Reasonable angles observed!
No volume check is called.
No lattice vector length check is called.
No center of mass distance check is called.
The new structure has passed the interatomic distance check.
The new structure has passed through all the cell check being called.
pre relax geo: 
lattice_vector 6.85465134127 9.13440330319e-18 -6.93889390391e-18
lattice_vector 1.49806697414 9.95044616751 0.0
lattice_vector -0.194534015984 0.778588634544 7.45575376137
atom 7.32471 8.17225 5.55306 S
atom 5.59875 6.37693 4.23611 C
atom 4.89219 9.02742 4.35782 C
atom 4.16629 7.41510 4.20572 S
atom 6.19348 9.31717 4.84715 C
atom 6.82862 6.66281 4.77084 C
atom 7.86332 5.69260 4.77986 C
atom 5.36799 5.09776 3.67194 C
atom 8.75027 4.93047 4.83048 N
atom 5.17530 4.02768 3.24159 N
atom 6.43023 10.68347 4.77022 C
atom 7.59211 11.37125 5.16495 C
atom 8.55057 11.94097 5.52007 N
atom 4.15220 10.04705 3.97431 N
atom 4.99176 11.47472 4.16672 S
atom 2.66518 4.69906 1.79928 S
atom 4.73158 2.90668 1.10677 C
atom 2.31078 1.86689 1.84822 C
atom 4.04687 1.47856 1.90025 S
atom 1.76226 3.18050 1.81665 C
atom 4.18607 4.16321 1.06613 C
atom 4.85304 5.20100 0.36763 C
atom 5.95482 2.62121 0.45061 C
atom 5.35765 6.06786 -0.23129 N
atom 6.94497 2.32535 -0.09730 N
atom 0.37137 3.09966 1.84010 C
atom -0.58624 4.13172 1.80785 C
atom -1.41310 4.95599 1.75993 N
atom 1.46802 0.85430 1.88776 N
atom -0.09427 1.41695 1.93762 S

--SPE Check and Full Relaxation--
Replica f21a42d110 executing FHI-aims and checking the SPE.
Aims relaxation being called. out_location=/lustre/project/nmarom/fcurtis/gator/run_calcs/tmp/f21a42d110
Binary location is/home/fcurtis/fhi-aims.150205/bin/aims.150205.scalapack.mpi.x
SPE extracted
Structure passed SPE check
Replica f21a42d110 executing FHI-aims for a full unit cell relax
Aims relaxation being called. out_location=/lustre/project/nmarom/fcurtis/gator/run_calcs/tmp/f21a42d110
Binary location is/home/fcurtis/fhi-aims.150205/bin/aims.150205.scalapack.mpi.x
