
 -------------------------------------------------------------------------
|  Replica f54e4b494b Beginning New Iteration: 2018-01-04 20:55:26.012712 |
 -------------------------------------------------------------------------
 Total size of common pool: 10   Total number of GA-added structures: 0
-- Restart of replicas has been requested
-- Generating trial structure with 1 processes
-- Using normal fitness scheme
---- Structure selection ----
-- Parent A's ID:      init_0435
-- Parent A's energy: -33433.2076456
-- Parent B's ID:      init_0382
-- Parent B's energy: -33433.0305143

|----------------------- Structure creation process ----------------------|

---- Mutation ----
Single Parent geometry:
lattice_vector 5.49005851063 0 0
lattice_vector 0.00217313102257 8.32534930386 0
lattice_vector 0.0413154023507 0.0156402508666 10.5717247714
atom 5.78533 1.16256 1.72005 O
atom 4.99201 1.24896 0.58398 C
atom 5.23868 2.06313 -0.08849 H
atom 4.07852 0.24053 0.63464 C
atom 2.91810 -0.65324 0.21248 C
atom 3.07554 -1.23845 -0.70318 H
atom 1.94469 -0.15142 0.14983 H
atom 3.16133 -1.46190 1.55400 C
atom 3.46106 -2.50970 1.42379 H
atom 2.32448 -1.42630 2.26259 H
atom 4.30381 -0.49276 1.83419 C
atom 5.35148 0.08618 2.48164 C
atom 5.89469 -0.06642 3.40548 H
atom -0.26560 5.33634 8.84263 O
atom 0.53142 5.42689 9.97588 C
atom 0.28686 6.24369 10.64592 H
atom 1.44595 4.41949 9.92478 C
atom 2.60539 3.52455 10.34816 C
atom 2.44706 2.94236 11.26558 H
atom 3.58003 4.02425 10.40835 H
atom 2.35819 2.71203 9.00955 C
atom 2.05675 1.66526 9.14383 H
atom 3.19383 2.74337 8.29927 H
atom 1.21704 3.68208 8.72855 C
atom 0.16616 4.25765 8.08327 C
atom -0.38036 4.10090 7.16216 H
atom -0.27269 1.17340 6.99650 O
atom 0.52008 1.25657 5.85970 C
atom 0.27287 2.06847 5.18492 H
atom 1.43554 0.25027 5.91437 C
atom 2.59665 -0.64393 5.49476 C
atom 2.43989 -1.23133 4.58057 H
atom 3.56920 -0.14086 5.43158 H
atom 2.35403 -1.44876 6.83872 C
atom 2.05374 -2.49673 6.71113 H
atom 3.19123 -1.41227 7.54678 H
atom 1.21179 -0.47893 7.11677 C
atom 0.16315 0.10083 7.76201 C
atom -0.37930 -0.05065 8.68633 H
atom 5.81743 5.33507 3.56877 O
atom 5.02452 5.41768 4.70540 C
atom 5.27369 6.22747 5.38234 H
atom 4.10719 4.41308 4.64872 C
atom 2.94690 3.51769 5.06823 C
atom 3.10649 2.92762 5.98042 H
atom 1.97382 4.01941 5.13547 H
atom 3.18752 2.71589 3.72201 C
atom 3.48683 1.66729 3.84634 H
atom 2.34953 2.75592 3.01519 H
atom 4.33009 3.68572 3.44522 C
atom 5.38015 4.26404 2.80127 C
atom 5.92213 4.11385 1.87639 H

Input Structure's Volume: 483.198174762
-- Mutation Choice: Angle_strain
-- Changing unit cell angle beta by 27.85 degrees
-- alpha=89.92 beta=117.62 gamma=89.99 
Mutated geometry:
lattice_vector 5.49005851063 0 0
lattice_vector 0.00217313102257 8.32534930386 0
lattice_vector -4.90190874654 0.0169305599404 9.36666003538
atom 5.24734 1.16282 1.55786 O
atom 4.45402 1.24922 0.42180 C
atom 4.70069 2.06339 -0.25067 H
atom 3.54052 0.24079 0.47245 C
atom 2.38011 -0.65299 0.05030 C
atom 2.53754 -1.23819 -0.86536 H
atom 1.40669 -0.15117 -0.01236 H
atom 2.62333 -1.46164 1.39182 C
atom 2.92306 -2.50944 1.26160 H
atom 1.78649 -1.42604 2.10040 H
atom 3.76581 -0.49250 1.67200 C
atom 4.81348 0.08644 2.31945 C
atom 5.35669 -0.06616 3.24329 H
atom -4.60168 5.35073 7.75790 O
atom -3.80466 5.44129 8.89115 C
atom -4.04922 6.25808 9.56118 H
atom -2.89013 4.43388 8.84005 C
atom -1.73069 3.53895 9.26342 C
atom -1.88902 2.95676 10.18085 H
atom -0.75604 4.03864 9.32362 H
atom -1.97788 2.72642 7.92482 C
atom -2.27933 1.67966 8.05910 H
atom -1.14225 2.75776 7.21454 H
atom -3.11903 3.69648 7.64382 C
atom -4.16992 4.27204 6.99854 C
atom -4.71643 4.11530 6.07742 H
atom -3.26833 1.18316 6.24943 O
atom -2.47556 1.26634 5.11263 C
atom -2.72277 2.07823 4.43785 H
atom -1.56010 0.26003 5.16730 C
atom -0.39899 -0.63416 4.74769 C
atom -0.55575 -1.22157 3.83350 H
atom 0.57356 -0.13110 4.68451 H
atom -0.64161 -1.43900 6.09165 C
atom -0.94190 -2.48697 5.96406 H
atom 0.19558 -1.40250 6.79971 H
atom -1.78385 -0.46917 6.36970 C
atom -2.83250 0.11059 7.01494 C
atom -3.37495 -0.04089 7.93926 H
atom 3.93870 5.33995 3.06866 O
atom 3.14579 5.42256 4.20529 C
atom 3.39496 6.23235 4.88223 H
atom 2.22847 4.41796 4.14860 C
atom 1.06818 3.52257 4.56811 C
atom 1.22776 2.93250 5.48031 H
atom 0.09509 4.02429 4.63535 H
atom 1.30879 2.72077 3.22190 C
atom 1.60810 1.67217 3.34623 H
atom 0.47080 2.76080 2.51508 H
atom 2.45136 3.69060 2.94511 C
atom 3.50142 4.26892 2.30116 C
atom 4.04340 4.11874 1.37627 H


---- Checking Cell Orthogonalization ----
lattice_vector 5.49005851063 0.0 0.0
lattice_vector 0.00217313102257 8.32534930386 0.0
lattice_vector 0.588149764088 0.0169305599404 9.36666003538
atom 5.24734 1.16282 1.55786 O
atom 4.45402 1.24922 0.42180 C
atom 4.70069 2.06339 -0.25067 H
atom 3.54052 0.24079 0.47245 C
atom 2.38011 -0.65299 0.05030 C
atom 2.53754 -1.23819 -0.86536 H
atom 1.40669 -0.15117 -0.01236 H
atom 2.62333 -1.46164 1.39182 C
atom 2.92306 -2.50944 1.26160 H
atom 1.78649 -1.42604 2.10040 H
atom 3.76581 -0.49250 1.67200 C
atom 4.81348 0.08644 2.31945 C
atom 5.35669 -0.06616 3.24329 H
atom 0.88838 5.35073 7.75790 O
atom 1.68540 5.44129 8.89115 C
atom 1.44084 6.25808 9.56118 H
atom 2.59993 4.43388 8.84005 C
atom 3.75937 3.53895 9.26342 C
atom 3.60104 2.95676 10.18085 H
atom 4.73402 4.03864 9.32362 H
atom 3.51218 2.72642 7.92482 C
atom 3.21073 1.67966 8.05910 H
atom 4.34781 2.75776 7.21454 H
atom 2.37103 3.69648 7.64382 C
atom 1.32014 4.27204 6.99854 C
atom 0.77362 4.11530 6.07742 H
atom 2.22173 1.18316 6.24943 O
atom 3.01450 1.26634 5.11263 C
atom 2.76729 2.07823 4.43785 H
atom 3.92996 0.26003 5.16730 C
atom 5.09107 -0.63416 4.74769 C
atom 4.93430 -1.22157 3.83350 H
atom 6.06362 -0.13110 4.68451 H
atom 4.84845 -1.43900 6.09165 C
atom 4.54816 -2.48697 5.96406 H
atom 5.68564 -1.40250 6.79971 H
atom 3.70620 -0.46917 6.36970 C
atom 2.65756 0.11059 7.01494 C
atom 2.11511 -0.04089 7.93926 H
atom 3.93870 5.33995 3.06866 O
atom 3.14579 5.42256 4.20529 C
atom 3.39496 6.23235 4.88223 H
atom 2.22847 4.41796 4.14860 C
atom 1.06818 3.52257 4.56811 C
atom 1.22776 2.93250 5.48031 H
atom 0.09509 4.02429 4.63535 H
atom 1.30879 2.72077 3.22190 C
atom 1.60810 1.67217 3.34623 H
atom 0.47080 2.76080 2.51508 H
atom 2.45136 3.69060 2.94511 C
atom 3.50142 4.26892 2.30116 C
atom 4.04340 4.11874 1.37627 H


---- Cell Checks ----
-- Volume check:
-- New structure's volume: 428.118697
-- Allowed range: 283.200000 - 660.800000
-- Passed volume check
-- No lattice principal component check is called
-- No COM distance check is called
-- Combined interatomic distance check:
-- Full atomic distance check minimum distance between all pairs of atoms: 0.211672
-- Interatomic distance check enforcing minimum distance interatomic pairs of atoms: 1.000000
-- Specific radius check enforcing minimum proportion: 0.700000
-- Atoms 4 and 38 too close
-- Specific radius proportion: 0.885842
-- Failed atomic distance check, selecting new parents

|----------------------- Structure creation process ----------------------|

---- Mutation ----
Single Parent geometry:
lattice_vector 7.45851271555 0 0
lattice_vector 0.0364785987959 7.65520591262 0
lattice_vector 0.0152110780743 3.11787600321 8.60284581052
atom 5.34847 6.76678 1.51112 O
atom 4.01889 6.39771 1.65550 C
atom 3.81713 5.72830 2.48133 H
atom 3.30451 7.00167 0.66843 C
atom 2.09975 7.42240 -0.15808 C
atom 1.37180 8.03515 0.38992 H
atom 1.58704 6.60748 -0.68367 H
atom 3.10873 8.26001 -1.05060 C
atom 2.91972 9.34164 -1.04355 H
atom 3.20038 7.91550 -2.08854 H
atom 4.20912 7.76871 -0.11834 C
atom 5.45065 7.61558 0.41761 C
atom 6.44616 8.00410 0.24290 H
atom 2.19622 8.32253 5.81946 O
atom 3.52802 7.96044 5.96143 C
atom 3.73508 7.29725 6.79041 H
atom 4.23717 8.56583 4.97162 C
atom 5.43715 8.98449 4.13752 C
atom 6.16845 9.59941 4.67863 H
atom 5.94601 8.16731 3.61202 H
atom 4.42279 9.81713 3.24642 C
atom 4.60936 10.89908 3.24881 H
atom 4.32755 9.46880 2.21025 H
atom 3.32690 9.32670 4.18500 C
atom 2.08731 9.16765 4.72364 C
atom 1.08895 9.54878 4.54969 H
atom 1.57641 2.93360 1.52702 O
atom 0.24237 2.57526 1.65809 C
atom 0.02611 1.91082 2.48390 H
atom -0.45654 3.18188 0.66194 C
atom -1.64885 3.60420 -0.18152 C
atom -2.38131 4.22292 0.35360 H
atom -2.15704 2.78862 -0.70997 H
atom -0.62477 4.43318 -1.06489 C
atom -0.80796 5.51575 -1.06374 H
atom -0.52274 4.08495 -2.10054 H
atom 0.46200 3.93976 -0.11753 C
atom 1.69669 3.77796 0.43202 C
atom 2.69740 4.15700 0.26629 H
atom 5.91946 4.48903 5.81685 O
atom 7.25205 4.12798 5.95464 C
atom 7.46116 3.45736 6.77736 H
atom 7.95914 4.74142 4.96838 C
atom 9.15756 5.16578 4.13485 C
atom 9.88720 5.78111 4.67745 H
atom 9.66808 4.35177 3.60620 H
atom 8.14030 6.00040 3.24859 C
atom 8.32632 7.08237 3.25305 H
atom 8.04279 5.65507 2.21154 H
atom 7.04698 5.50573 4.18754 C
atom 5.80811 5.34122 4.72654 C
atom 4.80962 5.72503 4.55840 H

Input Structure's Volume: 491.191961179
-- Mutation Choice: Angle_strain
-- Changing unit cell angle alpha by 1.20 degrees
-- alpha=71.27 beta=89.90 gamma=89.73 
Mutated geometry:
lattice_vector 7.45851271555 0 0
lattice_vector 0.0364785987959 7.65520591262 0
lattice_vector 0.0152110780743 2.93749110029 8.66609790198
atom 5.37883 5.77126 -1.54488 O
atom 4.04924 5.40219 -1.40050 C
atom 3.84749 4.73278 -0.57467 H
atom 3.33487 6.00615 -2.38757 C
atom 2.13011 6.42688 -3.21408 C
atom 1.40216 7.03963 -2.66608 H
atom 1.61740 5.61196 -3.73967 H
atom 3.13909 7.26449 -4.10659 C
atom 2.95008 8.34612 -4.09955 H
atom 3.23074 6.91998 -5.14453 H
atom 4.23948 6.77319 -3.17434 C
atom 5.48100 6.62006 -2.63838 C
atom 6.47652 7.00858 -2.81310 H
atom 2.24048 8.57722 2.15565 O
atom 3.57228 8.21513 2.29762 C
atom 3.77934 7.55194 3.12660 H
atom 4.28143 8.82052 1.30781 C
atom 5.48141 9.23918 0.47370 C
atom 6.21270 9.85410 1.01482 H
atom 5.99027 8.42200 -0.05179 H
atom 4.46705 10.07182 -0.41739 C
atom 4.65362 11.15377 -0.41501 H
atom 4.37180 9.72349 -1.45356 H
atom 3.37116 9.58138 0.52119 C
atom 2.13157 9.42234 1.05983 C
atom 1.13321 9.80347 0.88588 H
atom 1.59137 2.48651 0.04094 O
atom 0.25733 2.12816 0.17201 C
atom 0.04107 1.46373 0.99781 H
atom -0.44159 2.73478 -0.82414 C
atom -1.63389 3.15711 -1.66761 C
atom -2.36635 3.77583 -1.13249 H
atom -2.14208 2.34152 -2.19606 H
atom -0.60981 3.98609 -2.55097 C
atom -0.79300 5.06866 -2.54982 H
atom -0.50778 3.63785 -3.58662 H
atom 0.47696 3.49266 -1.60362 C
atom 1.71165 3.33086 -1.05407 C
atom 2.71236 3.70991 -1.21980 H
atom 5.94817 5.25680 3.72143 O
atom 7.28076 4.89574 3.85923 C
atom 7.48987 4.22512 4.68194 H
atom 7.98784 5.50918 2.87296 C
atom 9.18627 5.93355 2.03943 C
atom 9.91591 6.54888 2.58203 H
atom 9.69678 5.11953 1.51078 H
atom 8.16901 6.76816 1.15317 C
atom 8.35503 7.85014 1.15763 H
atom 8.07149 6.42284 0.11612 H
atom 7.07568 6.27350 2.09212 C
atom 5.83681 6.10899 2.63112 C
atom 4.83832 6.49280 2.46298 H


---- Checking Cell Orthogonalization ----
lattice_vector 7.45851271555 0.0 0.0
lattice_vector 0.0364785987959 7.65520591262 0.0
lattice_vector 0.0152110780743 2.93749110029 8.66609790198
atom 5.39404 8.70875 7.12122 O
atom 4.06446 8.33969 7.26560 C
atom 3.86270 7.67027 8.09143 H
atom 3.35008 8.94365 6.27853 C
atom 2.14532 9.36437 5.45202 C
atom 1.41737 9.97712 6.00002 H
atom 1.63261 8.54945 4.92643 H
atom 3.15430 10.20198 4.55951 C
atom 2.96529 11.28362 4.56655 H
atom 3.24595 9.85747 3.52157 H
atom 4.25469 9.71068 5.49176 C
atom 5.49621 9.55755 6.02772 C
atom 6.49173 9.94607 5.85300 H
atom 2.20400 0.92201 2.15565 O
atom 3.53580 0.55992 2.29762 C
atom 3.74286 -0.10327 3.12660 H
atom 4.24495 1.16531 1.30781 C
atom 5.44493 1.58397 0.47370 C
atom 6.17623 2.19890 1.01482 H
atom 5.95379 0.76680 -0.05179 H
atom 4.43057 2.41661 -0.41739 C
atom 4.61714 3.49857 -0.41501 H
atom 4.33533 2.06829 -1.45356 H
atom 3.33468 1.92618 0.52119 C
atom 2.09509 1.76714 1.05983 C
atom 1.09673 2.14826 0.88588 H
atom 1.60658 5.42400 8.70704 O
atom 0.27254 5.06565 8.83811 C
atom 0.05628 4.40122 9.66391 H
atom -0.42638 5.67227 7.84195 C
atom -1.61868 6.09460 6.99849 C
atom -2.35114 6.71332 7.53361 H
atom -2.12687 5.27901 6.47004 H
atom -0.59460 6.92358 6.11513 C
atom -0.77779 8.00615 6.11627 H
atom -0.49257 6.57534 5.07947 H
atom 0.49217 6.43015 7.06248 C
atom 1.72686 6.26835 7.61203 C
atom 2.72757 6.64740 7.44630 H
atom 5.94817 5.25680 3.72143 O
atom 7.28076 4.89574 3.85923 C
atom 7.48987 4.22512 4.68194 H
atom 7.98784 5.50918 2.87296 C
atom 9.18627 5.93355 2.03943 C
atom 9.91591 6.54888 2.58203 H
atom 9.69678 5.11953 1.51078 H
atom 8.16901 6.76816 1.15317 C
atom 8.35503 7.85014 1.15763 H
atom 8.07149 6.42284 0.11612 H
atom 7.07568 6.27350 2.09212 C
atom 5.83681 6.10899 2.63112 C
atom 4.83832 6.49280 2.46298 H


---- Cell Checks ----
-- Volume check:
-- New structure's volume: 494.803431
-- Allowed range: 283.200000 - 660.800000
-- Passed volume check
-- No lattice principal component check is called
-- No COM distance check is called
-- Combined interatomic distance check:
-- Full atomic distance check minimum distance between all pairs of atoms: 0.211672
-- Interatomic distance check enforcing minimum distance interatomic pairs of atoms: 1.000000
-- Specific radius check enforcing minimum proportion: 0.700000
-- Atoms 0 and 34 too close
-- Specific radius proportion: 0.974448
-- Failed atomic distance check, selecting new parents

|----------------------- Structure creation process ----------------------|

---- Mutation ----
Single Parent geometry:
lattice_vector 7.45851271555 0 0
lattice_vector 0.0364785987959 7.65520591262 0
lattice_vector 0.0152110780743 3.11787600321 8.60284581052
atom 5.34847 6.76678 1.51112 O
atom 4.01889 6.39771 1.65550 C
atom 3.81713 5.72830 2.48133 H
atom 3.30451 7.00167 0.66843 C
atom 2.09975 7.42240 -0.15808 C
atom 1.37180 8.03515 0.38992 H
atom 1.58704 6.60748 -0.68367 H
atom 3.10873 8.26001 -1.05060 C
atom 2.91972 9.34164 -1.04355 H
atom 3.20038 7.91550 -2.08854 H
atom 4.20912 7.76871 -0.11834 C
atom 5.45065 7.61558 0.41761 C
atom 6.44616 8.00410 0.24290 H
atom 2.19622 8.32253 5.81946 O
atom 3.52802 7.96044 5.96143 C
atom 3.73508 7.29725 6.79041 H
atom 4.23717 8.56583 4.97162 C
atom 5.43715 8.98449 4.13752 C
atom 6.16845 9.59941 4.67863 H
atom 5.94601 8.16731 3.61202 H
atom 4.42279 9.81713 3.24642 C
atom 4.60936 10.89908 3.24881 H
atom 4.32755 9.46880 2.21025 H
atom 3.32690 9.32670 4.18500 C
atom 2.08731 9.16765 4.72364 C
atom 1.08895 9.54878 4.54969 H
atom 1.57641 2.93360 1.52702 O
atom 0.24237 2.57526 1.65809 C
atom 0.02611 1.91082 2.48390 H
atom -0.45654 3.18188 0.66194 C
atom -1.64885 3.60420 -0.18152 C
atom -2.38131 4.22292 0.35360 H
atom -2.15704 2.78862 -0.70997 H
atom -0.62477 4.43318 -1.06489 C
atom -0.80796 5.51575 -1.06374 H
atom -0.52274 4.08495 -2.10054 H
atom 0.46200 3.93976 -0.11753 C
atom 1.69669 3.77796 0.43202 C
atom 2.69740 4.15700 0.26629 H
atom 5.91946 4.48903 5.81685 O
atom 7.25205 4.12798 5.95464 C
atom 7.46116 3.45736 6.77736 H
atom 7.95914 4.74142 4.96838 C
atom 9.15756 5.16578 4.13485 C
atom 9.88720 5.78111 4.67745 H
atom 9.66808 4.35177 3.60620 H
atom 8.14030 6.00040 3.24859 C
atom 8.32632 7.08237 3.25305 H
atom 8.04279 5.65507 2.21154 H
atom 7.04698 5.50573 4.18754 C
atom 5.80811 5.34122 4.72654 C
atom 4.80962 5.72503 4.55840 H

Input Structure's Volume: 491.191961179
-- Mutation Choice: Angle_strain
-- Changing unit cell angle alpha by -28.23 degrees
-- alpha=41.84 beta=89.90 gamma=89.73 
Mutated geometry:
lattice_vector 7.45851271555 0 0
lattice_vector 0.0364785987959 7.65520591262 0
lattice_vector 0.0152110780743 6.81672238121 6.10429379932
atom 5.37883 4.47988 -0.69206 O
atom 4.04924 4.11081 -0.54768 C
atom 3.84749 3.44139 0.27815 H
atom 3.33487 4.71477 -1.53475 C
atom 2.13011 5.13549 -2.36126 C
atom 1.40216 5.74825 -1.81326 H
atom 1.61740 4.32057 -2.88685 H
atom 3.13909 5.97311 -3.25378 C
atom 2.95008 7.05474 -3.24673 H
atom 3.23074 5.62859 -4.29172 H
atom 4.23948 5.48181 -2.32152 C
atom 5.48100 5.32868 -1.78557 C
atom 6.47652 5.71719 -1.96028 H
atom 2.24048 8.93895 1.91676 O
atom 3.57228 8.57686 2.05874 C
atom 3.77934 7.91367 2.88771 H
atom 4.28143 9.18225 1.06892 C
atom 5.48141 9.60091 0.23482 C
atom 6.21270 10.21584 0.77593 H
atom 5.99027 8.78374 -0.29067 H
atom 4.46705 10.43355 -0.65627 C
atom 4.65362 11.51551 -0.65389 H
atom 4.37180 10.08523 -1.69245 H
atom 3.37116 9.94312 0.28230 C
atom 2.13157 9.78408 0.82094 C
atom 1.13321 10.16521 0.64700 H
atom 1.59137 1.89514 0.43148 O
atom 0.25733 1.53679 0.56255 C
atom 0.04107 0.87236 1.38835 H
atom -0.44159 2.14341 -0.43361 C
atom -1.63389 2.56574 -1.27707 C
atom -2.36635 3.18445 -0.74195 H
atom -2.14208 1.75015 -1.80552 H
atom -0.60981 3.39471 -2.16043 C
atom -0.79300 4.47729 -2.15929 H
atom -0.50778 3.04648 -3.19609 H
atom 0.47696 2.90129 -1.21308 C
atom 1.71165 2.73949 -0.66353 C
atom 2.71236 3.11853 -0.82926 H
atom 5.94817 6.32013 3.01921 O
atom 7.28076 5.95908 3.15701 C
atom 7.48987 5.28846 3.97972 H
atom 7.98784 6.57252 2.17075 C
atom 9.18627 6.99688 1.33721 C
atom 9.91591 7.61221 1.87982 H
atom 9.69678 6.18287 0.80857 H
atom 8.16901 7.83150 0.45095 C
atom 8.35503 8.91347 0.45542 H
atom 8.07149 7.48617 -0.58610 H
atom 7.07568 7.33683 1.38991 C
atom 5.83681 7.17232 1.92891 C
atom 4.83832 7.55613 1.76077 H


---- Checking Cell Orthogonalization ----
lattice_vector 6.16164829639 0 0
lattice_vector 0.0257437727861 7.45846828686 0
lattice_vector 1.04185432012 0.0328827344487 7.58399410299
atom 5.91543 2.11703 3.23997 O
atom 6.11329 3.44593 3.58595 C
atom 7.02321 3.64455 4.13676 H
atom 5.05568 4.16396 3.12194 C
atom 4.18377 5.37174 2.81760 C
atom 4.64580 6.09810 2.13597 H
atom 3.77573 5.88586 3.69646 H
atom 3.18210 4.36621 2.10923 C
atom 3.04254 4.55571 1.03670 H
atom 2.20038 4.27795 2.59178 H
atom 4.16873 3.26241 2.46910 C
atom 4.71625 2.01899 2.54787 C
atom 4.48686 1.02426 2.18674 H
atom 2.78422 5.28141 6.05135 O
atom 2.96955 3.94897 6.39075 C
atom 3.88034 3.73876 6.93497 H
atom 1.90412 3.24349 5.92569 C
atom 1.01666 2.04657 5.62443 C
atom 1.46654 1.31371 4.94159 H
atom 0.60551 1.53912 6.50552 H
atom 0.02406 3.06436 4.92080 C
atom -0.12146 2.87828 3.84859 H
atom -0.95474 3.16298 5.40689 H
atom 1.02442 4.15680 5.27895 C
atom 1.58397 5.39446 5.36321 C
atom 1.36322 6.39360 5.00930 H
atom 7.39332 5.89941 5.64777 O
atom 7.57654 7.23282 5.98495 C
atom 8.48582 7.44594 6.53082 H
atom 6.50952 7.93542 5.51953 C
atom 5.62055 9.13081 5.21591 C
atom 6.06903 9.86172 4.53013 H
atom 5.20976 9.64041 6.09582 H
atom 4.62907 8.11014 4.51485 C
atom 4.48352 8.29383 3.44220 H
atom 3.65009 8.01149 5.00078 H
atom 5.63100 7.01990 4.87477 C
atom 6.19319 5.78327 4.96028 C
atom 5.97397 4.78330 4.60732 H
atom 3.17813 1.53586 0.91179 O
atom 3.35918 0.20264 1.25074 C
atom 4.26477 -0.00959 1.80316 H
atom 2.29617 -0.50078 0.77722 C
atom 1.40852 -1.69615 0.47023 C
atom 1.85981 -2.42735 -0.21321 H
atom 0.99380 -2.20524 1.34861 H
atom 0.42044 -0.67547 -0.23602 C
atom 0.27698 -0.86100 -1.30853 H
atom -0.55963 -0.57457 0.24722 H
atom 1.42174 0.41440 0.12627 C
atom 1.98239 1.65135 0.21590 C
atom 1.76703 2.65059 -0.14145 H


---- Cell Checks ----
-- Volume check:
-- New structure's volume: 348.533510
-- Allowed range: 283.200000 - 660.800000
-- Passed volume check
-- No lattice principal component check is called
-- No COM distance check is called
-- Combined interatomic distance check:
-- Full atomic distance check minimum distance between all pairs of atoms: 0.211672
-- Interatomic distance check enforcing minimum distance interatomic pairs of atoms: 1.000000
-- Specific radius check enforcing minimum proportion: 0.700000
-- Atoms 0 and 20 too close
-- Specific radius proportion: 0.753967
-- Failed atomic distance check, selecting new parents

|----------------------- Structure creation process ----------------------|

---- Mutation ----
Single Parent geometry:
lattice_vector 5.49005851063 0 0
lattice_vector 0.00217313102257 8.32534930386 0
lattice_vector 0.0413154023507 0.0156402508666 10.5717247714
atom 5.78533 1.16256 1.72005 O
atom 4.99201 1.24896 0.58398 C
atom 5.23868 2.06313 -0.08849 H
atom 4.07852 0.24053 0.63464 C
atom 2.91810 -0.65324 0.21248 C
atom 3.07554 -1.23845 -0.70318 H
atom 1.94469 -0.15142 0.14983 H
atom 3.16133 -1.46190 1.55400 C
atom 3.46106 -2.50970 1.42379 H
atom 2.32448 -1.42630 2.26259 H
atom 4.30381 -0.49276 1.83419 C
atom 5.35148 0.08618 2.48164 C
atom 5.89469 -0.06642 3.40548 H
atom -0.26560 5.33634 8.84263 O
atom 0.53142 5.42689 9.97588 C
atom 0.28686 6.24369 10.64592 H
atom 1.44595 4.41949 9.92478 C
atom 2.60539 3.52455 10.34816 C
atom 2.44706 2.94236 11.26558 H
atom 3.58003 4.02425 10.40835 H
atom 2.35819 2.71203 9.00955 C
atom 2.05675 1.66526 9.14383 H
atom 3.19383 2.74337 8.29927 H
atom 1.21704 3.68208 8.72855 C
atom 0.16616 4.25765 8.08327 C
atom -0.38036 4.10090 7.16216 H
atom -0.27269 1.17340 6.99650 O
atom 0.52008 1.25657 5.85970 C
atom 0.27287 2.06847 5.18492 H
atom 1.43554 0.25027 5.91437 C
atom 2.59665 -0.64393 5.49476 C
atom 2.43989 -1.23133 4.58057 H
atom 3.56920 -0.14086 5.43158 H
atom 2.35403 -1.44876 6.83872 C
atom 2.05374 -2.49673 6.71113 H
atom 3.19123 -1.41227 7.54678 H
atom 1.21179 -0.47893 7.11677 C
atom 0.16315 0.10083 7.76201 C
atom -0.37930 -0.05065 8.68633 H
atom 5.81743 5.33507 3.56877 O
atom 5.02452 5.41768 4.70540 C
atom 5.27369 6.22747 5.38234 H
atom 4.10719 4.41308 4.64872 C
atom 2.94690 3.51769 5.06823 C
atom 3.10649 2.92762 5.98042 H
atom 1.97382 4.01941 5.13547 H
atom 3.18752 2.71589 3.72201 C
atom 3.48683 1.66729 3.84634 H
atom 2.34953 2.75592 3.01519 H
atom 4.33009 3.68572 3.44522 C
atom 5.38015 4.26404 2.80127 C
atom 5.92213 4.11385 1.87639 H

Input Structure's Volume: 483.198174762
-- Mutation Choice: Angle_strain
-- Changing unit cell angle beta by -4.49 degrees
-- alpha=89.92 beta=85.29 gamma=89.99 
Mutated geometry:
lattice_vector 5.49005851063 0 0
lattice_vector 0.00217313102257 8.32534930386 0
lattice_vector 0.86858992527 0.0154243108665 10.5360632996
atom 5.88059 1.16266 1.68619 O
atom 5.08727 1.24906 0.55012 C
atom 5.33394 2.06322 -0.12234 H
atom 4.17378 0.24063 0.60078 C
atom 3.01336 -0.65315 0.17863 C
atom 3.17079 -1.23836 -0.73704 H
atom 2.03994 -0.15133 0.11597 H
atom 3.25658 -1.46180 1.52015 C
atom 3.55631 -2.50960 1.38993 H
atom 2.41974 -1.42621 2.22873 H
atom 4.39906 -0.49266 1.80033 C
atom 5.44673 0.08628 2.44778 C
atom 5.98994 -0.06632 3.37162 H
atom 0.50393 5.34940 8.79256 O
atom 1.30095 5.43996 9.92581 C
atom 1.05639 6.25675 10.59585 H
atom 2.21548 4.43255 9.87471 C
atom 3.37493 3.53761 10.29809 C
atom 3.21659 2.95542 11.21551 H
atom 4.34957 4.03731 10.35828 H
atom 3.12773 2.72509 8.95948 C
atom 2.82628 1.67833 9.09376 H
atom 3.96337 2.75643 8.24920 H
atom 1.98658 3.69514 8.67848 C
atom 0.93569 4.27071 8.03320 C
atom 0.38918 4.11396 7.11209 H
atom 0.25805 1.18224 6.96406 O
atom 1.05082 1.26541 5.82726 C
atom 0.80361 2.07731 5.15248 H
atom 1.96628 0.25911 5.88193 C
atom 3.12739 -0.63508 5.46232 C
atom 2.97063 -1.22249 4.54813 H
atom 4.09994 -0.13202 5.39914 H
atom 2.88477 -1.43992 6.80628 C
atom 2.58448 -2.48789 6.67869 H
atom 3.72196 -1.40342 7.51434 H
atom 1.74253 -0.47009 7.08433 C
atom 0.69389 0.10967 7.72957 C
atom 0.15144 -0.04181 8.65389 H
atom 6.15153 5.33938 3.51709 O
atom 5.35863 5.42199 4.65372 C
atom 5.60780 6.23177 5.33066 H
atom 4.44130 4.41739 4.59704 C
atom 3.28101 3.52199 5.01655 C
atom 3.44060 2.93192 5.92874 H
atom 2.30793 4.02372 5.08379 H
atom 3.52163 2.72019 3.67034 C
atom 3.82094 1.67159 3.79466 H
atom 2.68364 2.76022 2.96351 H
atom 4.66420 3.69002 3.39354 C
atom 5.71426 4.26834 2.74960 C
atom 6.25623 4.11816 1.82471 H


---- Checking Cell Orthogonalization ----
lattice_vector 5.49005851063 0.0 0.0
lattice_vector 0.00217313102257 8.32534930386 0.0
lattice_vector 0.86858992527 0.0154243108665 10.5360632996
atom 5.88059 1.16266 1.68619 O
atom 5.08727 1.24906 0.55012 C
atom 5.33394 2.06322 -0.12234 H
atom 4.17378 0.24063 0.60078 C
atom 3.01336 -0.65315 0.17863 C
atom 3.17079 -1.23836 -0.73704 H
atom 2.03994 -0.15133 0.11597 H
atom 3.25658 -1.46180 1.52015 C
atom 3.55631 -2.50960 1.38993 H
atom 2.41974 -1.42621 2.22873 H
atom 4.39906 -0.49266 1.80033 C
atom 5.44673 0.08628 2.44778 C
atom 5.98994 -0.06632 3.37162 H
atom 0.50393 5.34940 8.79256 O
atom 1.30095 5.43996 9.92581 C
atom 1.05639 6.25675 10.59585 H
atom 2.21548 4.43255 9.87471 C
atom 3.37493 3.53761 10.29809 C
atom 3.21659 2.95542 11.21551 H
atom 4.34957 4.03731 10.35828 H
atom 3.12773 2.72509 8.95948 C
atom 2.82628 1.67833 9.09376 H
atom 3.96337 2.75643 8.24920 H
atom 1.98658 3.69514 8.67848 C
atom 0.93569 4.27071 8.03320 C
atom 0.38918 4.11396 7.11209 H
atom 0.25805 1.18224 6.96406 O
atom 1.05082 1.26541 5.82726 C
atom 0.80361 2.07731 5.15248 H
atom 1.96628 0.25911 5.88193 C
atom 3.12739 -0.63508 5.46232 C
atom 2.97063 -1.22249 4.54813 H
atom 4.09994 -0.13202 5.39914 H
atom 2.88477 -1.43992 6.80628 C
atom 2.58448 -2.48789 6.67869 H
atom 3.72196 -1.40342 7.51434 H
atom 1.74253 -0.47009 7.08433 C
atom 0.69389 0.10967 7.72957 C
atom 0.15144 -0.04181 8.65389 H
atom 6.15153 5.33938 3.51709 O
atom 5.35863 5.42199 4.65372 C
atom 5.60780 6.23177 5.33066 H
atom 4.44130 4.41739 4.59704 C
atom 3.28101 3.52199 5.01655 C
atom 3.44060 2.93192 5.92874 H
atom 2.30793 4.02372 5.08379 H
atom 3.52163 2.72019 3.67034 C
atom 3.82094 1.67159 3.79466 H
atom 2.68364 2.76022 2.96351 H
atom 4.66420 3.69002 3.39354 C
atom 5.71426 4.26834 2.74960 C
atom 6.25623 4.11816 1.82471 H


---- Cell Checks ----
-- Volume check:
-- New structure's volume: 481.568208
-- Allowed range: 283.200000 - 660.800000
-- Passed volume check
-- No lattice principal component check is called
-- No COM distance check is called
-- Combined interatomic distance check:
-- Full atomic distance check minimum distance between all pairs of atoms: 0.211672
-- Interatomic distance check enforcing minimum distance interatomic pairs of atoms: 1.000000
-- Specific radius check enforcing minimum proportion: 0.700000
-- Passed all atomic distance check(s)
---- Assign structure ID ----
-- ID assigned: 099308f242
-- New trial structure generated:
-- Number of attempts for structure generation: 4
-- Time for structure generation: 2.3584959507 seconds

---- Pre-relaxation Comparison  ----
-- Comparison done with 1 parallel processes
-- The structure compared is unique. 
-- Time taken to compare structure to collection: 0.413 seconds

|-------------------------- FHI-aims evaluation--------------------------|

FHI-aims evaluation using control file: control.in.SPE.tier_1
-- Rejection energy threshold: -33430.2076456 eV
