
Beginning iteration
No restart file found
--Structure selection--
--Crossover--
Attempting crossover: 1
cross_type:     [1, 3]
Random Frac: [0.32054229472516105, 0.7332047726841999, 0.5860810146324609]
Parent A lattice vectors:  9.78502612885 12.9599123298 3.8946675534
Parent B lattice vectors:  3.85371124134 6.57515336584 19.4590630485
Child lattice vectors:  5.75359743387 11.2446713261 10.3248787933
Child angles:    92.2618730104 88.7309597569 90.8963612288
No volume check is called.
No lattice vector length check is called.
No center of mass distance check is called.
The new structure has passed the interatomic distance check.
The new structure has passed through all the cell check being called.
Crossover: 1 successful
post crossover geo: 
lattice_vector 5.75246980235 -0.113611898678 -0.00818172393095
lattice_vector 0.0462089659993 11.2444566846 0.0518828701384
lattice_vector 0.234371188367 -0.456042737997 10.3121393155
atom 2.19337 1.58187 2.23212 S
atom 0.82971 3.92354 3.02645 C
atom 3.51646 4.09686 2.57059 C
atom 2.24356 4.85023 3.55861 S
atom 3.46406 2.78940 2.01407 C
atom 0.80882 2.65354 2.50396 C
atom -0.44915 2.11598 2.11864 C
atom -0.38359 4.63546 3.19226 C
atom -1.49848 1.73128 1.77448 N
atom -1.37259 5.23854 3.35669 N
atom 4.64615 2.53984 1.31972 C
atom 4.97916 1.40242 0.55959 C
atom 5.23779 0.48741 -0.11963 N
atom 4.60204 4.81443 2.34980 N
atom 5.70529 3.92276 1.47143 S
atom -2.49386 -1.70017 1.73305 S
atom -0.41235 -3.44565 0.97808 C
atom -2.79228 -4.54184 1.74816 C
atom -1.04986 -4.90073 1.75806 S
atom -3.36415 -3.23859 1.74561 C
atom -0.97683 -2.19665 0.96947 C
atom -0.33462 -1.12777 0.29421 C
atom 0.79233 -3.69599 0.27804 C
atom 0.14860 -0.22892 -0.27400 N
atom 1.76364 -3.96174 -0.31550 N
atom -4.75214 -3.34253 1.80095 C
atom -5.71442 -2.31514 1.77849 C
atom -6.53480 -1.48352 1.74704 N
atom -3.61687 -5.56792 1.79181 N
atom -5.18498 -5.03638 1.89605 S

--Mutation--
No mutation applied.
--Cell Checks--
Cell checked! Reasonable angles observed!
No volume check is called.
No lattice vector length check is called.
No center of mass distance check is called.
The new structure has passed the interatomic distance check.
The new structure has passed through all the cell check being called.
pre relax geo: 
lattice_vector 5.75359743387 1.48400172359e-18 -1.73472347598e-18
lattice_vector -0.175909575701 11.2432952933 0.0
lattice_vector 0.228666326253 -0.403962954237 10.314438799
atom 2.15853 1.63512 2.22771 S
atom 0.74777 3.95302 3.00940 C
atom 3.43121 4.17728 2.55631 C
atom 2.14228 4.90989 3.53915 S
atom 3.40544 2.86650 2.00577 C
atom 0.75270 2.68047 2.49275 C
atom -0.49386 2.11640 2.10824 C
atom -0.47959 4.64159 3.17030 C
atom -1.53489 1.70947 1.76447 N
atom -1.48054 5.22577 3.33063 N
atom 4.59321 2.63715 1.31416 C
atom 4.94970 1.50305 0.55974 C
atom 5.22731 0.59022 -0.11490 N
atom 4.50273 4.91513 2.33366 N
atom 5.62462 4.04140 1.46088 S
atom 3.11543 9.50218 1.73757 S
atom 5.23206 7.79470 0.99344 C
atom 2.87315 6.65526 1.76541 C
atom 4.62231 6.33091 1.77928 S
atom 2.27567 7.94694 1.75607 C
atom 4.64304 9.03225 0.97830 C
atom 5.26498 10.11050 0.29897 C
atom 6.44245 7.56499 0.29616 C
atom 5.73116 11.01609 -0.27274 N
atom 7.41966 7.31576 -0.29484 N
atom 0.88992 7.81586 1.81004 C
atom -0.09243 8.82393 1.78156 C
atom -0.92902 9.63902 1.74517 N
atom 2.06892 5.61331 1.81269 N
atom 0.49048 6.11424 1.91239 S

--SPE Check and Full Relaxation--
Replica 63d78218dd executing FHI-aims and checking the SPE.
Aims relaxation being called. out_location=/lustre/project/nmarom/fcurtis/gator/run_calcs/tmp/63d78218dd
Binary location is/home/fcurtis/fhi-aims.150205/bin/aims.150205.scalapack.mpi.x
SPE extracted
Structure passed SPE check
Replica 63d78218dd executing FHI-aims for a full unit cell relax
Aims relaxation being called. out_location=/lustre/project/nmarom/fcurtis/gator/run_calcs/tmp/63d78218dd
Binary location is/home/fcurtis/fhi-aims.150205/bin/aims.150205.scalapack.mpi.x
