
Beginning iteration
No restart file found
--Structure selection--
--Crossover--
Attempting crossover: 1
cross_type:     [2, 1]
Parent A lattice vectors:  8.42514977246 3.88214882584 15.5347461734
Parent B lattice vectors:  9.66432335355 11.1397095044 4.8882724012
Child lattice vectors:  8.42514977246 3.88214882584 15.5347461734
Child angles:    89.6613015096 89.8717015978 86.3529699443
No volume check is called.
No lattice vector length check is called.
No center of mass distance check is called.
The new structure has stoms from different molecules sitting too close to each other.
Restarting iteration.

Attempting crossover: 2
cross_type:     [2, 1]
Parent A lattice vectors:  8.42514977246 3.88214882584 15.5347461734
Parent B lattice vectors:  9.66432335355 11.1397095044 4.8882724012
Child lattice vectors:  8.42514977246 3.88214882584 15.5347461734
Child angles:    89.6613015096 89.8717015978 86.3529699443
No volume check is called.
No lattice vector length check is called.
No center of mass distance check is called.
The new structure has stoms from different molecules sitting too close to each other.
Restarting iteration.

Attempting crossover: 3
cross_type:     [1, 3]
Random Frac: [0.7175963104520681, 0.30727250462625033, 0.5024716541540392]
Parent A lattice vectors:  8.42514977246 3.88214882584 15.5347461734
Parent B lattice vectors:  9.66432335355 11.1397095044 4.8882724012
Child lattice vectors:  8.77302377405 8.89981192734 10.2316345974
Child angles:    87.9355964346 89.1386833051 92.2360027444
No volume check is called.
No lattice vector length check is called.
No center of mass distance check is called.
The new structure has stoms from different molecules sitting too close to each other.
Restarting iteration.

Attempting crossover: 4
cross_type:     [4, 2]
Parent A lattice vectors:  8.42514977246 3.88214882584 15.5347461734
Parent B lattice vectors:  9.66432335355 11.1397095044 4.8882724012
Child lattice vectors:  9.66432335355 11.1397095044 4.8882724012
Child angles:    87.9671628247 86.4124120989 91.6407341092
No volume check is called.
No lattice vector length check is called.
No center of mass distance check is called.
The new structure has passed the interatomic distance check.
The new structure has passed through all the cell check being called.
Crossover: 4 successful
post crossover geo: 
lattice_vector 9.66432335355 -1.12757025938e-17 2.77555756156e-17
lattice_vector -0.318955490445 11.1351423538 0.0
lattice_vector 0.305880289891 0.182230831264 4.87528832385
atom 2.40035 4.17488 0.86152 S
atom 3.70570 2.02374 2.13097 C
atom 0.97934 2.02802 2.05801 C
atom 2.32030 1.56020 3.13042 S
atom 1.02962 3.08905 1.11232 C
atom 3.72596 3.03928 1.20962 C
atom 4.88852 3.28258 0.43732 C
atom 4.86437 1.25041 2.39260 C
atom 5.82748 3.49739 -0.22764 N
atom 5.81362 0.62130 2.65931 N
atom -0.19251 3.17688 0.45455 C
atom -0.57685 4.01777 -0.60195 C
atom -0.92061 4.66120 -1.51360 N
atom -0.15543 1.36071 2.16866 N
atom -1.28203 1.99182 1.12272 S
atom 0.88902 0.69473 15.74204 S
atom 3.70696 0.75504 15.61986 C
atom 2.30219 0.56515 13.28343 C
atom 3.83614 1.20957 13.91137 S
atom 1.11708 0.33413 14.03551 C
atom 2.55859 0.50058 16.32678 C
atom 2.58842 0.04606 17.66866 C
atom 4.96227 0.66912 16.27945 C
atom 2.51694 -0.35376 18.76678 N
atom 5.99365 0.64169 16.82670 N
atom 0.12412 -0.17192 13.20531 C
atom -1.15216 -0.62417 13.58383 C
atom -2.18023 -1.05863 13.92859 N
atom 2.26290 0.28177 11.99378 N
atom 0.74352 -0.26094 11.57406 S

--Mutation--
No mutation applied.
--Cell Checks--
Cell checked! Reasonable angles observed!
No volume check is called.
No lattice vector length check is called.
No center of mass distance check is called.
The new structure has passed the interatomic distance check.
The new structure has passed through all the cell check being called.
pre relax geo: 
lattice_vector 9.66432335355 -1.12757025938e-17 2.77555756156e-17
lattice_vector -0.318955490445 11.1351423538 0.0
lattice_vector 0.305880289891 0.182230831264 4.87528832385
atom 2.40035 4.17488 0.86152 S
atom 3.70570 2.02374 2.13097 C
atom 0.97934 2.02802 2.05801 C
atom 2.32030 1.56020 3.13042 S
atom 1.02962 3.08905 1.11232 C
atom 3.72596 3.03928 1.20962 C
atom 4.88852 3.28258 0.43732 C
atom 4.86437 1.25041 2.39260 C
atom 5.82748 3.49739 -0.22764 N
atom 5.81362 0.62130 2.65931 N
atom -0.19251 3.17688 0.45455 C
atom -0.57685 4.01777 -0.60195 C
atom -0.92061 4.66120 -1.51360 N
atom -0.15543 1.36071 2.16866 N
atom -1.28203 1.99182 1.12272 S
atom -0.04170 11.46541 5.99146 S
atom 2.77624 11.52572 5.86928 C
atom 1.37147 11.33583 3.53286 C
atom 2.90542 11.98025 4.16080 S
atom 0.18637 11.10481 4.28494 C
atom 1.62788 11.27126 6.57621 C
atom 1.65771 10.81674 7.91809 C
atom 4.03155 11.43981 6.52887 C
atom 1.58623 10.41692 9.01620 N
atom 5.06294 11.41237 7.07612 N
atom -0.80659 10.59876 3.45474 C
atom -2.08288 10.14651 3.83325 C
atom -3.11095 9.71205 4.17802 N
atom 1.33219 11.05245 2.24321 N
atom -0.18720 10.50974 1.82349 S

--SPE Check and Full Relaxation--
Replica a37e3c7bf7 executing FHI-aims and checking the SPE.
Aims relaxation being called. out_location=/lustre/project/nmarom/fcurtis/gator/run_calcs/tmp/a37e3c7bf7
Binary location is/home/fcurtis/fhi-aims.150205/bin/aims.150205.scalapack.mpi.x
SPE extracted
Structure passed SPE check
Replica a37e3c7bf7 executing FHI-aims for a full unit cell relax
Aims relaxation being called. out_location=/lustre/project/nmarom/fcurtis/gator/run_calcs/tmp/a37e3c7bf7
Binary location is/home/fcurtis/fhi-aims.150205/bin/aims.150205.scalapack.mpi.x
