
Beginning iteration
No restart file found
--Structure selection--
--Crossover--
Attempting crossover: 1
cross_type:     [3, 1]
Parent A lattice vectors:  7.2070066326 6.57667730479 13.7818656165
Parent B lattice vectors:  13.1076102411 10.3053943441 3.94993604678
Child lattice vectors:  7.2070066326 6.57667730479 13.7818656165
Child angles:    57.3713184593 67.4155841356 89.2135585922
No volume check is called.
No lattice vector length check is called.
No center of mass distance check is called.
The new structure has passed the interatomic distance check.
The new structure has passed through all the cell check being called.
Crossover: 1 successful
post crossover geo: 
lattice_vector 7.2070066326 0.0 -1.11022302463e-16
lattice_vector 0.0902685851385 6.57605778213 -4.4408920985e-16
lattice_vector 5.29284556026 7.35912368323 10.3811802971
atom -2.27991 5.17891 5.71693 S
atom -3.49727 3.37907 7.45432 C
atom -1.68883 2.44813 5.69602 C
atom -3.35112 2.08929 6.23511 S
atom -1.23455 3.77982 5.49389 C
atom -3.05251 4.65524 7.23107 C
atom -3.05464 5.60910 8.27854 C
atom -3.99629 3.00334 8.72461 C
atom -2.98573 6.35966 9.17281 N
atom -4.39923 2.71771 9.78410 N
atom 0.09816 3.76807 5.10556 C
atom 0.95619 4.82737 4.75599 C
atom 1.70428 5.66347 4.42269 N
atom -0.83601 1.46728 5.48403 N
atom 0.62208 2.09950 5.01322 S
atom -2.16133 -1.36808 3.51377 S
atom -4.75371 -1.22704 2.45820 C
atom -3.53083 -3.65926 2.55841 C
atom -5.14587 -2.92908 2.77427 S
atom -2.30771 -3.00411 2.87610 C
atom -3.56668 -0.60462 2.74362 C
atom -3.32047 0.74447 2.38238 C
atom -5.80755 -0.50093 1.84844 C
atom -3.03835 1.83589 2.06820 N
atom -6.70076 0.07088 1.35540 N
atom -1.23856 -3.86162 2.64367 C
atom 0.13239 -3.64255 2.85823 C
atom 1.27739 -3.49487 3.03643 N
atom -3.45745 -4.89646 2.10704 N
atom -1.86878 -5.39449 2.08479 S

--Mutation--
No mutation applied.
--Cell Checks--
------Cell modification required------
Geometry before modification:
lattice_vector      7.2070066326      0.0000000000     -0.0000000000
lattice_vector      0.0902685851      6.5760577821     -0.0000000000
lattice_vector      5.2928455603      7.3591236832     10.3811802971
atom     -2.2799096107      5.1789050102      5.7169313431 S
atom     -3.4972736835      3.3790700436      7.4543242455 C
atom     -1.6888266802      2.4481275082      5.6960229874 C
atom     -3.3511190414      2.0892894268      6.2351102829 S
atom     -1.2345467806      3.7798211575      5.4938912392 C
atom     -3.0525059700      4.6552433968      7.2310690880 C
atom     -3.0546431541      5.6090979576      8.2785358429 C
atom     -3.9962868690      3.0033414364      8.7246055603 C
atom     -2.9857344627      6.3596568108      9.1728086472 N
atom     -4.3992295265      2.7177112103      9.7840976715 N
atom      0.0981632844      3.7680661678      5.1055631638 C
atom      0.9561941028      4.8273682594      4.7559895515 C
atom      1.7042781115      5.6634650230      4.4226865768 N
atom     -0.8360069394      1.4672819376      5.4840269089 N
atom      0.6220752597      2.0995004177      5.0132174492 S
atom     -2.1613316536     -1.3680773973      3.5137712955 S
atom     -4.7537121773     -1.2270375490      2.4581983089 C
atom     -3.5308346748     -3.6592571735      2.5584065914 C
atom     -5.1458730698     -2.9290797710      2.7742745876 S
atom     -2.3077139854     -3.0041122437      2.8761038780 C
atom     -3.5666782856     -0.6046222448      2.7436165810 C
atom     -3.3204727173      0.7444735765      2.3823766708 C
atom     -5.8075451851     -0.5009301901      1.8484435081 C
atom     -3.0383481979      1.8358923197      2.0682024956 N
atom     -6.7007555962      0.0708829314      1.3553996086 N
atom     -1.2385617495     -3.8616161346      2.6436707973 C
atom      0.1323927939     -3.6425549984      2.8582324982 C
atom      1.2773889303     -3.4948687553      3.0364325047 N
atom     -3.4574520588     -4.8964638710      2.1070375443 N
atom     -1.8687802553     -5.3944926262      2.0847942829 S

Geometry after modification:
lattice_vector      7.2070066326      0.0000000000     -0.0000000000
lattice_vector      0.0902685851      6.5760577821     -0.0000000000
lattice_vector      5.1123083900     -5.7929918810     10.3811802971
atom      4.8368282318     -1.3971527815      5.7169313431 S
atom      3.6194643974     -3.1969876289      7.4543242455 C
atom      5.4279112816     -4.1279301643      5.6960229874 C
atom      3.7656190395     -4.4867682457      6.2351102829 S
atom      5.8821911812     -2.7962365150      5.4938912392 C
atom      4.0642318726     -1.9208143950      7.2310690880 C
atom      4.0620946884     -0.9669598341      8.2785358429 C
atom      3.1204512119     -3.5727162361      8.7246055603 C
atom      4.1310033798     -0.2164009660      9.1728086472 N
atom      2.7175085545     -3.8583464622      9.7840976715 N
atom      7.2149014473     -2.8079915047      5.1055631638 C
atom      8.0729322433     -1.7486895323      4.7559895515 C
atom      8.8210163116     -0.9125927687      4.4226865768 N
atom      6.2807312012     -5.1087756157      5.4840269089 N
atom      7.7388134003     -4.4765572548      5.0132174492 S
atom      5.1359434128      5.2079801559      3.5137712955 S
atom      2.5435631275      5.3490200043      2.4581983089 C
atom      3.7664406300      2.9168004990      2.5584065914 C
atom      2.1514022350      3.6469779015      2.7742745876 S
atom      4.9895610809      3.5719454288      2.8761038780 C
atom      3.7305970192      5.9714355469      2.7436165810 C
atom      3.9768025875      7.3205313683      2.3823766708 C
atom      1.4897300005      6.0751276016      1.8484435081 C
atom      4.2589268684      8.4119501114      2.0682024956 N
atom      0.5965196490      6.6469407082      1.3553996086 N
atom      6.0587134361      2.7144415379      2.6436707973 C
atom      7.4296679497      2.9335026741      2.8582324982 C
atom      8.5746641159      3.0811889172      3.0364325047 N
atom      3.8398232460      1.6795939207      2.1070375443 N
atom      5.4284949303      1.1815651655      2.0847942829 S


No volume check is called.
No lattice vector length check is called.
No center of mass distance check is called.
The new structure has passed the interatomic distance check.
The new structure has passed through all the cell check being called.
pre relax geo: 
lattice_vector 7.2070066326 0.0 -1.11022302463e-16
lattice_vector 0.0902685851385 6.57605778213 -4.4408920985e-16
lattice_vector 5.11230838998 -5.79299188104 10.3811802971
atom 4.83683 -1.39715 5.71693 S
atom 3.61946 -3.19699 7.45432 C
atom 5.42791 -4.12793 5.69602 C
atom 3.76562 -4.48677 6.23511 S
atom 5.88219 -2.79624 5.49389 C
atom 4.06423 -1.92081 7.23107 C
atom 4.06209 -0.96696 8.27854 C
atom 3.12045 -3.57272 8.72461 C
atom 4.13100 -0.21640 9.17281 N
atom 2.71751 -3.85835 9.78410 N
atom 7.21490 -2.80799 5.10556 C
atom 8.07293 -1.74869 4.75599 C
atom 8.82102 -0.91259 4.42269 N
atom 6.28073 -5.10878 5.48403 N
atom 7.73881 -4.47656 5.01322 S
atom 5.13594 5.20798 3.51377 S
atom 2.54356 5.34902 2.45820 C
atom 3.76644 2.91680 2.55841 C
atom 2.15140 3.64698 2.77427 S
atom 4.98956 3.57195 2.87610 C
atom 3.73060 5.97144 2.74362 C
atom 3.97680 7.32053 2.38238 C
atom 1.48973 6.07513 1.84844 C
atom 4.25893 8.41195 2.06820 N
atom 0.59652 6.64694 1.35540 N
atom 6.05871 2.71444 2.64367 C
atom 7.42967 2.93350 2.85823 C
atom 8.57466 3.08119 3.03643 N
atom 3.83982 1.67959 2.10704 N
atom 5.42849 1.18157 2.08479 S

--SPE Check and Full Relaxation--
Replica bb36a886c4 executing FHI-aims and checking the SPE.
Aims relaxation being called. out_location=/lustre/project/nmarom/fcurtis/gator/run_calcs/tmp/bb36a886c4
Binary location is/home/fcurtis/fhi-aims.150205/bin/aims.150205.scalapack.mpi.x
SPE extracted
Structure passed SPE check
Replica bb36a886c4 executing FHI-aims for a full unit cell relax
Aims relaxation being called. out_location=/lustre/project/nmarom/fcurtis/gator/run_calcs/tmp/bb36a886c4
Binary location is/home/fcurtis/fhi-aims.150205/bin/aims.150205.scalapack.mpi.x
