Replica: bb36a886c4--Replica bb36a886c4 updating local pool--
***************** USER INITIAL POOL FILLED *****************

Replica: 63d78218dd--Replica 63d78218dd updating local pool--
***************** USER INITIAL POOL FILLED *****************

Replica: a37e3c7bf7--Replica a37e3c7bf7 updating local pool--
***************** USER INITIAL POOL FILLED *****************

Replica: a37e3c7bf7
Beginning iteration
No restart file found
--Structure selection--
--Crossover--
Attempting crossover: 1
cross_type:     [1, 2]
Parent A lattice vectors:  8.42514977246 3.88214882584 15.5347461734
Parent B lattice vectors:  16.4765874024 4.99024532683 7.25722869769
Child lattice vectors:  16.4765874024 4.99024532683 7.25722869769
Child angles:    109.968483052 83.9159302575 90.9718225427
No volume check is called.
No lattice vector length check is called.
No center of mass distance check is called.
The new structure has passed the interatomic distance check.
The new structure has passed through all the cell check being called.
Crossover: 1 successful
post crossover geo: 
lattice_vector 16.31772119 -2.17082453 0.70528608
lattice_vector 0.59417539 4.92090823 -0.57807112
lattice_vector 0.24392225 -1.71485397 7.04749219
atom -0.92684 -0.63777 7.97539 S
atom -3.73724 -0.69874 7.74438 C
atom -2.23951 -0.68370 5.45973 C
atom -3.79812 -1.28184 6.07147 S
atom -1.08529 -0.39810 6.23995 C
atom -2.61716 -0.39490 8.47665 C
atom -2.69813 0.16201 9.77724 C
atom -5.01838 -0.55696 8.34141 C
atom -2.66898 0.64812 10.84198 N
atom -6.07196 -0.48164 8.83951 N
atom -0.05921 0.04954 5.41587 C
atom 1.20122 0.52996 5.81281 C
atom 2.21308 0.98841 6.17415 N
atom -2.14894 -0.49322 4.15579 N
atom -0.61394 0.02041 3.75916 S
atom 0.88902 0.69473 15.74204 S
atom 3.70696 0.75504 15.61986 C
atom 2.30219 0.56515 13.28343 C
atom 3.83614 1.20957 13.91137 S
atom 1.11708 0.33413 14.03551 C
atom 2.55859 0.50058 16.32678 C
atom 2.58842 0.04606 17.66866 C
atom 4.96227 0.66912 16.27945 C
atom 2.51694 -0.35376 18.76678 N
atom 5.99365 0.64169 16.82670 N
atom 0.12412 -0.17192 13.20531 C
atom -1.15216 -0.62417 13.58383 C
atom -2.18023 -1.05863 13.92859 N
atom 2.26290 0.28177 11.99378 N
atom 0.74352 -0.26094 11.57406 S

--Mutation--
No mutation applied.
--Cell Checks--
Cell checked! Reasonable angles observed!
No volume check is called.
No lattice vector length check is called.
No center of mass distance check is called.
The new structure has passed the interatomic distance check.
The new structure has passed through all the cell check being called.
pre relax geo: 
lattice_vector 16.4765874024 -7.21644966006e-16 0.0
lattice_vector -0.0846380032291 4.98952751574 1.11022302463e-16
lattice_vector 0.769176296157 -2.46567566468 6.78204834195
atom 15.98410 -1.67173 7.86355 S
atom 13.19895 -2.08702 7.70273 C
atom 14.58245 -1.60566 5.39682 C
atom 13.14386 -2.47647 5.97425 S
atom 15.72132 -1.25762 6.17424 C
atom 14.29954 -1.72014 8.43568 C
atom 14.20165 -1.33288 9.79534 C
atom 11.93703 -2.19032 8.34675 C
atom 14.21204 -0.97316 10.90949 N
atom 10.90500 -2.31672 8.87850 N
atom 16.64325 -0.58283 5.38239 C
atom 17.84522 0.01548 5.79993 C
atom 18.80239 0.56249 6.18620 N
atom 14.59124 -1.25580 4.12313 N
atom 16.02679 -0.49614 3.74969 S
atom -0.07560 3.92339 2.11803 S
atom 2.70200 4.37971 1.92805 C
atom 1.23578 4.27097 -0.37557 C
atom 2.69691 5.04123 0.28349 S
atom 0.12473 3.79601 0.37507 C
atom 1.62849 3.89188 2.63008 C
atom 1.77536 3.29420 3.90653 C
atom 3.98476 4.38981 2.53852 C
atom 1.80425 2.76462 4.95034 N
atom 5.03324 4.43995 3.05054 N
atom -0.82752 3.25871 -0.48273 C
atom -2.01571 2.59668 -0.12687 C
atom -2.96187 1.98978 0.19092 N
atom 1.17901 4.13526 -1.68836 N
atom -0.27219 3.44309 -2.12899 S

--SPE Check and Full Relaxation--
Replica a37e3c7bf7 executing FHI-aims and checking the SPE.
Aims relaxation being called. out_location=/lustre/project/nmarom/fcurtis/gator/run_calcs/tmp/a37e3c7bf7
Binary location is/home/fcurtis/fhi-aims.150205/bin/aims.150205.scalapack.mpi.x
SPE extracted
Structure passed SPE check
Replica a37e3c7bf7 executing FHI-aims for a full unit cell relax
Aims relaxation being called. out_location=/lustre/project/nmarom/fcurtis/gator/run_calcs/tmp/a37e3c7bf7
Binary location is/home/fcurtis/fhi-aims.150205/bin/aims.150205.scalapack.mpi.x
Relaxation failed!
SPE check not passed or full relaxation failure for a37e3c7bf7

Replica: 63d78218dd
Beginning iteration
No restart file found
--Structure selection--
--Crossover--
Attempting crossover: 1
cross_type:     [3, 3]
Random Frac: [0.31733438749438353, 0.5259963169847655, 0.4650704316040957]
Parent A lattice vectors:  9.86874789118 13.4093501154 3.90523218828
Parent B lattice vectors:  8.97473747079 14.6182412384 3.95752806212
Child lattice vectors:  9.25274024683 13.9602694869 3.93272454069
Child angles:    90.0090228104 90.1939194295 84.2354217532
No volume check is called.
No lattice vector length check is called.
No center of mass distance check is called.
The new structure has stoms from different molecules sitting too close to each other.
Restarting iteration.

Attempting crossover: 2
cross_type:     [4, 3]
Random Frac: [0.6202959312616165, 0.6231069849428961, 0.7329747107899858]
Parent A lattice vectors:  9.86874789118 13.4093501154 3.90523218828
Parent B lattice vectors:  8.97473747079 14.6182412384 3.95752806212
Child lattice vectors:  9.5232700831 13.8439811381 3.91881575147
Child angles:    90.2067571368 90.1009224759 86.0583938195
No volume check is called.
No lattice vector length check is called.
No center of mass distance check is called.
The new structure has stoms from different molecules sitting too close to each other.
Restarting iteration.

Attempting crossover: 3
cross_type:     [1, 3]
Random Frac: [0.49521599603350713, 0.46222422914412986, 0.41115988182717966]
Parent A lattice vectors:  9.86874789118 13.4093501154 3.90523218828
Parent B lattice vectors:  8.97473747079 14.6182412384 3.95752806212
Child lattice vectors:  9.41100210221 14.0375506386 3.93555711152
Child angles:    90.0237608356 89.834845735 84.547773706
No volume check is called.
No lattice vector length check is called.
No center of mass distance check is called.
The new structure has passed the interatomic distance check.
The new structure has passed through all the cell check being called.
Crossover: 3 successful
post crossover geo: 
lattice_vector 9.39431963344 0.450984914574 -0.33216230875
lattice_vector 0.688862950373 14.002897036 0.705103089912
lattice_vector 0.160157506803 -0.207247001342 3.92683180586
atom 2.17945 4.64533 1.69632 S
atom 3.52858 2.25415 2.42962 C
atom 0.78307 2.21795 2.34892 C
atom 2.15874 1.27955 2.97692 S
atom 0.80098 3.54979 1.84096 C
atom 3.52627 3.52513 1.90518 C
atom 4.75543 4.09541 1.48191 C
atom 4.77957 1.60825 2.60589 C
atom 5.76372 4.55173 1.10309 N
atom 5.82005 1.10467 2.78216 N
atom -0.48703 3.92401 1.47154 C
atom -0.90531 5.13429 0.88776 C
atom -1.25307 6.11876 0.36417 N
atom -0.38543 1.60490 2.38393 N
atom -1.58782 2.61564 1.82411 S
atom -2.19187 -4.61319 3.16598 S
atom -3.49563 -2.34042 4.26598 C
atom -0.75790 -2.28278 4.04914 C
atom -2.09680 -1.43894 4.86339 S
atom -0.80529 -3.53872 3.37642 C
atom -3.52345 -3.53395 3.58410 C
atom -4.77397 -4.04964 3.15344 C
atom -4.73443 -1.72720 4.58619 C
atom -5.80107 -4.45793 2.77033 N
atom -5.76243 -1.25159 4.87644 N
atom 0.46070 -3.85645 2.89482 C
atom 0.84594 -4.97970 2.13962 C
atom 1.16568 -5.88646 1.47644 N
atom 0.41206 -1.67371 4.10111 N
atom 1.58124 -2.59887 3.35374 S

--Mutation--
No mutation applied.
--Cell Checks--
Cell checked! Reasonable angles observed!
No volume check is called.
No lattice vector length check is called.
No center of mass distance check is called.
The new structure has passed the interatomic distance check.
The new structure has passed through all the cell check being called.
pre relax geo: 
lattice_vector 9.41100210221 -1.38777878078e-17 5.55111512313e-17
lattice_vector 1.33378839537 13.9740415216 0.0
lattice_vector 0.0113441713792 -0.00272228562827 3.93553982028
atom 2.33833 4.62476 1.53310 S
atom 3.54459 2.21702 2.44045 C
atom 0.80506 2.30281 2.25807 C
atom 2.11116 1.33732 2.98565 S
atom 0.90470 3.60315 1.68243 C
atom 3.62170 3.45669 1.85078 C
atom 4.89096 3.94624 1.44511 C
atom 4.75619 1.52470 2.69728 C
atom 5.93270 4.33466 1.08141 N
atom 5.76448 0.98403 2.93874 N
atom -0.35006 4.01577 1.24561 C
atom -0.68900 5.21082 0.58417 C
atom -0.97048 6.18063 -0.00278 N
atom -0.39198 1.74692 2.28079 N
atom -1.52404 2.78027 1.62403 S
atom 8.22399 9.64363 3.31698 S
atom 6.99263 12.02985 4.24701 C
atom 9.73593 11.94979 4.13105 C
atom 8.41109 12.89690 4.84905 S
atom 9.65218 10.66297 3.52338 C
atom 6.93174 10.80389 3.62768 C
atom 5.67392 10.32382 3.17753 C
atom 5.77412 12.71574 4.48779 C
atom 4.64260 9.94316 2.77769 N
atom 4.76048 13.25305 4.71381 N
atom 10.91770 10.26190 3.10718 C
atom 11.27508 9.08311 2.42663 C
atom 11.57421 8.12823 1.82416 N
atom 10.93117 12.50633 4.19539 N
atom 12.08031 11.48950 3.54195 S

--SPE Check and Full Relaxation--
Replica 63d78218dd executing FHI-aims and checking the SPE.
Aims relaxation being called. out_location=/lustre/project/nmarom/fcurtis/gator/run_calcs/tmp/63d78218dd
Binary location is/home/fcurtis/fhi-aims.150205/bin/aims.150205.scalapack.mpi.x
SPE extracted
Structure passed SPE check
Replica 63d78218dd executing FHI-aims for a full unit cell relax
Aims relaxation being called. out_location=/lustre/project/nmarom/fcurtis/gator/run_calcs/tmp/63d78218dd
Binary location is/home/fcurtis/fhi-aims.150205/bin/aims.150205.scalapack.mpi.x
post relax geo: 
lattice_vector 9.85354027 0.05280394 -0.01816912
lattice_vector -0.05146998 13.41746865 -0.0319929
lattice_vector 0.00344193 0.0071767 3.90389567
atom 2.13914 4.70878 1.42902 S
atom 3.45189 2.36017 2.34292 C
atom 0.71014 2.33362 2.19033 C
atom 2.06078 1.43432 2.92021 S
atom 0.75018 3.63051 1.59950 C
atom 3.47234 3.59539 1.73931 C
atom 4.71542 4.12827 1.30798 C
atom 4.69180 1.71568 2.58729 C
atom 5.73955 4.54689 0.92817 N
atom 5.72697 1.22010 2.81129 N
atom -0.52438 3.98422 1.16797 C
atom -0.91681 5.15702 0.49627 C
atom -1.22148 6.11377 -0.10056 N
atom -0.46177 1.72703 2.22795 N
atom -1.64163 2.70459 1.56940 S
atom 7.45445 9.06241 3.36258 S
atom 6.14626 11.41749 4.26533 C
atom 8.88742 11.44121 4.10648 C
atom 7.53915 12.34339 4.83839 S
atom 8.84439 10.14181 3.52168 C
atom 6.12357 10.18056 3.66581 C
atom 4.87985 9.65126 3.23133 C
atom 4.90658 12.06338 4.50802 C
atom 3.86305 9.22654 2.83846 N
atom 3.87564 12.56537 4.73697 N
atom 10.11625 9.78605 3.08455 C
atom 10.50834 8.61222 2.41474 C
atom 10.84013 7.66230 1.82139 N
atom 10.05930 12.04771 4.13546 N
atom 11.23570 11.06724 3.47484 S

FHI-aims relaxation wall time (s):   2238.398
Ensuring cell is lower triangular...
post second check geo: 
lattice_vector 9.8536985049 5.5836411883e-18 -3.46944695195e-18
lattice_vector 0.0204912877798 13.417589865 -6.93889390391e-18
lattice_vector -0.00371801460941 -0.00213933843336 3.90390142726
atom 2.16170 4.69382 1.44419 S
atom 3.46016 2.33604 2.35488 C
atom 0.71859 2.32456 2.19720 C
atom 2.06305 1.41629 2.92740 S
atom 0.76667 3.62261 1.60955 C
atom 3.48834 3.57256 1.75426 C
atom 4.73506 4.09979 1.32648 C
atom 4.69615 1.68433 2.59997 C
atom 5.76211 4.51382 0.94955 N
atom 5.72823 1.18267 2.82468 N
atom -0.50517 3.98418 1.17653 C
atom -0.89008 5.16067 0.50692 C
atom -1.18851 6.12045 -0.08818 N
atom -0.45662 1.72417 2.23122 N
atom -1.63000 2.70961 1.57285 S
atom 7.49669 9.01427 3.39789 S
atom 6.19948 11.37417 4.30387 C
atom 8.94102 11.38357 4.15009 C
atom 7.59625 12.29122 4.88169 S
atom 8.89210 10.08582 3.56212 C
atom 6.17127 10.13881 3.70135 C
atom 4.92553 9.61723 3.26333 C
atom 4.96283 12.02612 4.54583 C
atom 3.90720 9.19890 2.86759 N
atom 3.93418 12.53309 4.77409 N
atom 10.16284 9.72428 3.12646 C
atom 10.54987 8.54997 2.45456 C
atom 10.87766 7.59970 1.85956 N
atom 10.11608 11.98371 4.18267 N
atom 11.28842 10.99851 3.52187 S

--Comparison--
Comparison begins: comparing with 10 structures in the commmon pool
Comparison test finds the new structure to be acceptible! Minimum resi=84.150559
E_stuct: -93472.9480908  GM: -93473.4604755
Structure index: 077d82003e
old top energies:    [[-93473.46047554]
 [-93473.45024293]
 [-93473.3684607 ]
 [-93473.32260236]
 [-93473.26537317]
 [-93473.15632061]
 [-93473.08444775]
 [-93473.01366212]
 [-93471.46143999]
 [-93470.79589083]]
new top energies:    [[-93473.46047554]
 [-93473.45024293]
 [-93473.3684607 ]
 [-93473.32260236]
 [-93473.26537317]
 [-93473.15632061]
 [-93473.08444775]
 [-93473.01366212]
 [-93472.94809081]
 [-93471.46143999]
 [-93470.79589083]]
Top 100 energies have changed.
Convergence counter reset.
Convergence iteration:  0
Success!: 
  stoichiometry-- S:6_C:16_N:8
  cascade-- 0
  structure index-- 3358b3faf3
  replica child count-- 1
  collection count -- 11
  replica-- 63d78218dd
writing hierachy
63d78218dd finished iteration
Cumulative additions to common pool: 1
Avg addition per replica:            0.333333333333
Total size of common pool:           11
GA not converged yet.
GA Iteration time: -- 0:37:41.370103
Current Wallclock: -- 2015-07-20 22:17:31.032292

Replica: 63d78218dd
Beginning iteration
No restart file found
--Structure selection--
--Crossover--
Attempting crossover: 1
cross_type:     [1, 2]
Parent A lattice vectors:  9.67475977743 13.1482463464 3.87243787198
Parent B lattice vectors:  9.86874789118 13.4093501154 3.90523218828
Child lattice vectors:  9.86874789118 13.4093501154 3.90523218828
Child angles:    89.9953758099 89.9115262352 89.9731913726
No volume check is called.
No lattice vector length check is called.
No center of mass distance check is called.
The new structure has passed the interatomic distance check.
The new structure has passed through all the cell check being called.
Crossover: 1 successful
post crossover geo: 
lattice_vector 9.86491337 0.13913654 -0.23729763
lattice_vector -0.16146029 13.37999 0.87204856
lattice_vector 0.10330169 -0.25234215 3.89570156
atom 2.24121 1.62005 2.68321 S
atom 0.79554 3.97375 3.20956 C
atom 3.47748 4.19042 2.83948 C
atom 2.17536 4.91574 3.81178 S
atom 3.45521 2.85917 2.34104 C
atom 0.81029 2.66045 2.80605 C
atom -0.42312 2.07859 2.40680 C
atom -0.40376 4.72015 3.11333 C
atom -1.47198 1.66775 2.09225 N
atom -1.38066 5.35193 2.98957 N
atom 4.61168 2.63042 1.59875 C
atom 4.95453 1.49108 0.84543 C
atom 5.20745 0.58007 0.15884 N
atom 4.52405 4.94148 2.54992 N
atom 5.61880 4.05615 1.65583 S
atom -2.44353 -1.87721 1.88903 S
atom -0.37319 -3.50204 0.92605 C
atom -2.78595 -4.64924 1.37309 C
atom -1.05472 -5.00030 1.59330 S
atom -3.34820 -3.35040 1.51530 C
atom -0.92188 -2.25409 1.05192 C
atom -0.30474 -1.12370 0.46072 C
atom 0.81284 -3.72580 0.18631 C
atom 0.15197 -0.17209 -0.03890 N
atom 1.77199 -3.99187 -0.42802 N
atom -4.72583 -3.41310 1.32012 C
atom -5.68808 -2.39055 1.42629 C
atom -6.51761 -1.57387 1.53057 N
atom -3.60492 -5.64067 1.07840 N
atom -5.16025 -5.07228 0.98771 S

--Mutation--
No mutation applied.
--Cell Checks--
Cell checked! Reasonable angles observed!
No volume check is called.
No lattice vector length check is called.
No center of mass distance check is called.
The new structure has passed the interatomic distance check.
The new structure has passed through all the cell check being called.
pre relax geo: 
lattice_vector 9.86874789118 1.90819582357e-17 2.77555756156e-17
lattice_vector 0.00627421882081 13.4093486475 -1.11022302463e-16
lattice_vector 0.00603029507475 0.000312359377298 3.90522751993
atom 2.19866 1.76299 2.62773 S
atom 0.77408 4.16383 2.96448 C
atom 3.46693 4.32241 2.64807 C
atom 2.15217 5.12567 3.53866 S
atom 3.43789 2.96195 2.23643 C
atom 0.78001 2.82699 2.64730 C
atom -0.45152 2.23586 2.25595 C
atom -0.41192 4.91734 2.79030 C
atom -1.49821 1.81859 1.94261 N
atom -1.37655 5.55190 2.60162 N
atom 4.60854 2.67095 1.53954 C
atom 4.95330 1.48082 0.87031 C
atom 5.20979 0.52399 0.25063 N
atom 4.53065 5.03989 2.33668 N
atom 5.63399 4.08466 1.52930 S
atom 7.36055 11.68970 1.94511 S
atom 9.43034 9.97990 1.14117 C
atom 6.99159 8.89448 1.60128 C
atom 8.71191 8.53686 1.88680 S
atom 6.44445 10.20675 1.64508 C
atom 8.89642 11.24016 1.17230 C
atom 9.54348 12.32190 0.52474 C
atom 10.63054 9.69369 0.44724 C
atom 10.02544 13.23321 -0.02389 N
atom 11.60033 9.37624 -0.12451 N
atom 5.07116 10.14872 1.42011 C
atom 4.12115 11.18797 1.43588 C
atom 3.30095 12.02001 1.46639 N
atom 6.16605 7.89630 1.35106 N
atom 4.62151 8.47700 1.18506 S

--SPE Check and Full Relaxation--
Replica 63d78218dd executing FHI-aims and checking the SPE.
Aims relaxation being called. out_location=/lustre/project/nmarom/fcurtis/gator/run_calcs/tmp/63d78218dd
Binary location is/home/fcurtis/fhi-aims.150205/bin/aims.150205.scalapack.mpi.x
SPE extracted
Structure passed SPE check
Replica 63d78218dd executing FHI-aims for a full unit cell relax
Aims relaxation being called. out_location=/lustre/project/nmarom/fcurtis/gator/run_calcs/tmp/63d78218dd
Binary location is/home/fcurtis/fhi-aims.150205/bin/aims.150205.scalapack.mpi.x
post relax geo: 
lattice_vector 9.82306824 -0.01542648 -0.00248285
lattice_vector 0.39813926 12.8090096 -0.16257694
lattice_vector 0.22669195 -0.18304232 3.88335621
atom 2.18609 1.66394 1.96377 S
atom 0.83425 3.98179 2.86704 C
atom 3.53430 4.15679 2.42149 C
atom 2.23496 4.96194 3.32857 S
atom 3.49093 2.84823 1.86295 C
atom 0.81559 2.72595 2.31185 C
atom -0.45045 2.17315 1.97960 C
atom -0.38580 4.63606 3.16607 C
atom -1.51063 1.77084 1.69292 N
atom -1.37714 5.18396 3.45937 N
atom 4.71405 2.57240 1.25492 C
atom 5.07761 1.42109 0.52933 C
atom 5.36682 0.49671 -0.12489 N
atom 4.64986 4.84483 2.27401 N
atom 5.79115 3.93138 1.47126 S
atom 7.75240 11.16823 1.54551 S
atom 9.83792 9.38054 0.87880 C
atom 7.43294 8.32765 1.67882 C
atom 9.16985 7.93920 1.66154 S
atom 6.87433 9.63702 1.63722 C
atom 9.28248 10.63305 0.83206 C
atom 9.95940 11.67681 0.15100 C
atom 11.07273 9.11307 0.23552 C
atom 10.47911 12.54387 -0.43436 N
atom 12.07925 8.83491 -0.29091 N
atom 5.48836 9.55045 1.73820 C
atom 4.52925 10.58102 1.70424 C
atom 3.70924 11.41288 1.66547 N
atom 6.59885 7.31391 1.79124 N
atom 5.03648 7.86962 1.91268 S

FHI-aims relaxation wall time (s):   934.216
Ensuring cell is lower triangular...
post second check geo: 
lattice_vector 9.82308066691 -9.75781955237e-19 0.0
lattice_vector 0.378064170465 12.8106494975 -2.77555756156e-17
lattice_vector 0.225997574214 -0.231925916357 3.88078402525
atom 2.18297 1.64232 1.98531 S
atom 0.82727 3.94641 2.91753 C
atom 3.52715 4.13128 2.47498 C
atom 2.22632 4.92282 3.39184 S
atom 3.48598 2.82984 1.89988 C
atom 0.81072 2.69769 2.34646 C
atom -0.45436 2.14716 2.00688 C
atom -0.39388 4.59492 3.22450 C
atom -1.51384 1.74685 1.71483 N
atom -1.38615 5.13750 3.52447 N
atom 4.70969 2.56366 1.28873 C
atom 5.07524 1.42222 0.54870 C
atom 5.36607 0.50667 -0.11711 N
atom 4.64167 4.82288 2.33654 N
atom 5.78459 3.92148 1.52258 S
atom 7.73446 11.15986 1.68915 S
atom 9.82295 9.38405 1.00038 C
atom 7.41942 8.31732 1.78633 C
atom 9.15695 7.93185 1.76460 S
atom 6.85877 9.62624 1.76119 C
atom 9.26556 10.63617 0.96939 C
atom 9.94102 11.68954 0.30179 C
atom 11.05835 9.12669 0.35410 C
atom 10.45951 12.56477 -0.27238 N
atom 12.06544 8.85681 -0.17554 N
atom 5.47291 9.53623 1.86069 C
atom 4.51220 10.56563 1.83954 C
atom 3.69089 11.39663 1.81109 N
atom 6.58690 7.30094 1.88566 N
atom 5.02363 7.85261 2.01371 S

--Comparison--
Comparison begins: comparing with 11 structures in the commmon pool
Comparison test finds the new structure to be acceptible! Minimum resi=5.786448
E_stuct: -93473.1611672  GM: -93473.4604755
Structure index: 56fa97a32e
old top energies:    [[-93473.46047554]
 [-93473.45024293]
 [-93473.3684607 ]
 [-93473.32260236]
 [-93473.26537317]
 [-93473.15632061]
 [-93473.08444775]
 [-93473.01366212]
 [-93472.94809081]
 [-93471.46143999]
 [-93470.79589083]]
new top energies:    [[-93473.46047554]
 [-93473.45024293]
 [-93473.3684607 ]
 [-93473.32260236]
 [-93473.26537317]
 [-93473.16116724]
 [-93473.15632061]
 [-93473.08444775]
 [-93473.01366212]
 [-93472.94809081]
 [-93471.46143999]
 [-93470.79589083]]
Top 100 energies have changed.
Convergence counter reset.
Convergence iteration:  0
Success!: 
  stoichiometry-- S:6_C:16_N:8
  cascade-- 0
  structure index-- 3358b3faf3
  replica child count-- 2
  collection count -- 12
  replica-- 63d78218dd
writing hierachy
63d78218dd finished iteration
Cumulative additions to common pool: 2
Avg addition per replica:            0.666666666667
Total size of common pool:           12
GA not converged yet.
GA Iteration time: -- 0:15:52.958076
Current Wallclock: -- 2015-07-20 22:33:24.009066

Replica: 63d78218dd
Beginning iteration
No restart file found
--Structure selection--
--Crossover--
Attempting crossover: 1
cross_type:     [3, 1]
Parent A lattice vectors:  9.8536985049 13.4176055121 3.90390378393
Parent B lattice vectors:  16.4765874024 4.99024532683 7.25722869769
Child lattice vectors:  9.8536985049 13.4176055121 3.90390378393
Child angles:    90.0314813751 90.0545675788 89.9124981904
No volume check is called.
No lattice vector length check is called.
No center of mass distance check is called.
The new structure has stoms from different molecules sitting too close to each other.
Restarting iteration.

Attempting crossover: 2
cross_type:     [2, 3]
Random Frac: [0.38017668586252257, 0.7404170452032608, 0.379745322330719]
Parent A lattice vectors:  9.8536985049 13.4176055121 3.90390378393
Parent B lattice vectors:  16.4765874024 4.99024532683 7.25722869769
Child lattice vectors:  13.9322679505 11.2142799318 5.9516108551
Child angles:    101.045950023 85.8029347588 94.7005459324
No volume check is called.
No lattice vector length check is called.
No center of mass distance check is called.
The new structure has passed the interatomic distance check.
The new structure has passed through all the cell check being called.
Crossover: 2 successful
post crossover geo: 
lattice_vector 13.8602504682 -1.3455276546 0.437152755521
lattice_vector 0.169409902154 11.2119961402 -0.150057409412
lattice_vector 0.149882017894 -1.06445860018 5.85372830253
atom -5.20721 2.98284 3.17230 S
atom -2.42049 2.47189 3.39121 C
atom -3.92663 0.78377 1.81710 C
atom -2.25153 1.05506 2.35148 S
atom -5.06514 1.58543 2.11855 C
atom -3.52907 3.23308 3.66307 C
atom -3.41015 4.39913 4.45930 C
atom -1.20236 2.79928 4.04299 C
atom -3.36405 5.39085 5.07651 N
atom -0.21860 3.03809 4.62637 N
atom -6.17290 1.08045 1.45006 C
atom -7.45763 1.64836 1.46239 C
atom -8.50272 2.17431 1.49925 N
atom -4.12142 -0.26490 1.03969 N
atom -5.72291 -0.35669 0.56897 S
atom 5.29475 -2.72846 7.48536 S
atom 2.45332 -2.53166 7.60302 C
atom 3.79249 -1.09159 5.67687 C
atom 2.15575 -1.40384 6.28195 S
atom 5.02612 -1.64899 6.12017 C
atom 3.64358 -3.05709 8.03857 C
atom 3.65831 -4.01491 9.08126 C
atom 1.24337 -2.92476 8.23930 C
atom 3.73412 -4.82759 9.91866 N
atom 0.23666 -3.22967 8.75049 N
atom 6.05925 -1.17433 5.31804 C
atom 7.43754 -1.43134 5.45013 C
atom 8.58733 -1.61984 5.56739 N
atom 3.84423 -0.25086 4.66283 N
atom 5.40599 -0.08602 4.10842 S

--Mutation--
No mutation applied.
--Cell Checks--
Cell checked! Reasonable angles observed!
No volume check is called.
No lattice vector length check is called.
No center of mass distance check is called.
The new structure has passed the interatomic distance check.
The new structure has passed through all the cell check being called.
pre relax geo: 
lattice_vector 13.9322679505 2.9316826744e-16 0.0
lattice_vector -0.918987866855 11.1765618904 0.0
lattice_vector 0.435581218471 -1.10833866351 5.83125425442
atom 8.56344 2.42933 3.36896 S
atom 11.39197 2.18863 3.49658 C
atom 10.00726 0.37960 1.94544 C
atom 11.66426 0.80622 2.43273 S
atom 8.80667 1.06378 2.29218 C
atom 10.22413 2.83576 3.81228 C
atom 10.25482 3.99914 4.62061 C
atom 12.59264 2.62550 4.11576 C
atom 10.22426 4.98390 5.24981 N
atom 13.56655 2.95222 4.67244 N
atom 7.73243 0.46106 1.65051 C
atom 6.39988 0.90156 1.70946 C
atom 5.31055 1.32328 1.78511 N
atom 9.89036 -0.67451 1.15984 N
atom 8.29124 -0.91604 0.73644 S
atom 4.41118 10.00164 1.45244 S
atom 1.56913 9.92073 1.65851 C
atom 2.70186 11.50466 -0.28707 C
atom 1.12273 11.02864 0.36275 S
atom 3.99685 11.06472 0.11105 C
atom 2.81765 9.50848 2.05064 C
atom 2.95752 8.54535 3.07905 C
atom 0.42336 9.40529 2.32552 C
atom 3.13770 7.73481 3.90246 N
atom -0.53266 8.99867 2.86259 N
atom 4.95364 11.64598 -0.71526 C
atom 6.35377 11.52240 -0.62839 C
atom 7.51950 11.44501 -0.54851 N
atom 2.64032 12.35739 -1.29048 N
atom 4.16070 12.67888 -1.88944 S

--SPE Check and Full Relaxation--
Replica 63d78218dd executing FHI-aims and checking the SPE.
Aims relaxation being called. out_location=/lustre/project/nmarom/fcurtis/gator/run_calcs/tmp/63d78218dd
Binary location is/home/fcurtis/fhi-aims.150205/bin/aims.150205.scalapack.mpi.x
SPE extracted
Structure passed SPE check
Replica 63d78218dd executing FHI-aims for a full unit cell relax
Aims relaxation being called. out_location=/lustre/project/nmarom/fcurtis/gator/run_calcs/tmp/63d78218dd
Binary location is/home/fcurtis/fhi-aims.150205/bin/aims.150205.scalapack.mpi.x
Relaxation failed!
SPE check not passed or full relaxation failure for 63d78218dd

Replica: bb36a886c4
Beginning iteration
No restart file found
--Structure selection--
--Crossover--
Attempting crossover: 1
cross_type:     [1, 2]
Parent A lattice vectors:  8.42514977246 3.88214882584 15.5347461734
Parent B lattice vectors:  3.85371124134 6.57515336584 19.4590630485
Child lattice vectors:  3.85371124134 6.57515336584 19.4590630485
Child angles:    90.0816942313 90.0773639237 98.1991054311
No volume check is called.
No lattice vector length check is called.
No center of mass distance check is called.
The new structure has passed the interatomic distance check.
The new structure has passed through all the cell check being called.
Crossover: 1 successful
post crossover geo: 
lattice_vector 3.85006315 -0.16720967 -0.01204155
lattice_vector -0.65396594 6.53966 0.19446701
lattice_vector 0.00823719 -0.60543769 19.44964041
atom -0.92684 -0.63777 7.97539 S
atom -3.73724 -0.69874 7.74438 C
atom -2.23951 -0.68370 5.45973 C
atom -3.79812 -1.28184 6.07147 S
atom -1.08529 -0.39810 6.23995 C
atom -2.61716 -0.39490 8.47665 C
atom -2.69813 0.16201 9.77724 C
atom -5.01838 -0.55696 8.34141 C
atom -2.66898 0.64812 10.84198 N
atom -6.07196 -0.48164 8.83951 N
atom -0.05921 0.04954 5.41587 C
atom 1.20122 0.52996 5.81281 C
atom 2.21308 0.98841 6.17415 N
atom -2.14894 -0.49322 4.15579 N
atom -0.61394 0.02041 3.75916 S
atom 0.88902 0.69473 15.74204 S
atom 3.70696 0.75504 15.61986 C
atom 2.30219 0.56515 13.28343 C
atom 3.83614 1.20957 13.91137 S
atom 1.11708 0.33413 14.03551 C
atom 2.55859 0.50058 16.32678 C
atom 2.58842 0.04606 17.66866 C
atom 4.96227 0.66912 16.27945 C
atom 2.51694 -0.35376 18.76678 N
atom 5.99365 0.64169 16.82670 N
atom 0.12412 -0.17192 13.20531 C
atom -1.15216 -0.62417 13.58383 C
atom -2.18023 -1.05863 13.92859 N
atom 2.26290 0.28177 11.99378 N
atom 0.74352 -0.26094 11.57406 S

--Mutation--
No mutation applied.
--Cell Checks--
Cell checked! Reasonable angles observed!
No volume check is called.
No lattice vector length check is called.
No center of mass distance check is called.
The new structure has passed the interatomic distance check.
The new structure has passed through all the cell check being called.
pre relax geo: 
lattice_vector 3.85371124134 4.6458063091e-17 0.0
lattice_vector -0.937705503961 6.50794515743 0.0
lattice_vector -0.0262746929152 -0.0318177225731 19.459019297
atom 1.99279 6.06550 7.98902 S
atom -0.81157 5.87567 7.75474 C
atom 0.69122 5.88854 5.47341 C
atom -0.84188 5.24148 6.09968 S
atom 1.82952 6.24688 6.24697 C
atom 0.29197 6.24932 8.47978 C
atom 0.18285 6.84022 9.76320 C
atom -2.09953 5.97914 8.34495 C
atom 0.18755 7.35826 10.81317 N
atom -3.15693 6.02322 8.83867 N
atom 2.83778 6.71424 5.41192 C
atom 4.07493 7.26046 5.79683 C
atom 5.06481 7.77289 6.14633 N
atom 0.77751 6.04432 4.16458 N
atom 2.29001 6.61228 3.75578 S
atom 0.80884 1.19572 15.71626 S
atom 3.62188 1.37483 15.59755 C
atom 2.23398 1.05538 13.26516 C
atom 3.73655 1.78406 13.87662 S
atom 1.05767 0.79530 14.02156 C
atom 2.48343 1.09161 16.30956 C
atom 2.52877 0.67851 17.66434 C
atom 4.87767 1.36300 16.26170 C
atom 2.47127 0.30845 18.77365 N
atom 5.90756 1.39654 16.81142 N
atom 0.09020 0.22236 13.20484 C
atom -1.16643 -0.27360 13.59419 C
atom -2.17576 -0.74199 13.94975 N
atom 2.21106 0.73273 11.98438 N
atom 0.71797 0.11238 11.57807 S

--SPE Check and Full Relaxation--
Replica bb36a886c4 executing FHI-aims and checking the SPE.
Aims relaxation being called. out_location=/lustre/project/nmarom/fcurtis/gator/run_calcs/tmp/bb36a886c4
Binary location is/home/fcurtis/fhi-aims.150205/bin/aims.150205.scalapack.mpi.x
SPE extracted
Structure passed SPE check
Replica bb36a886c4 executing FHI-aims for a full unit cell relax
Aims relaxation being called. out_location=/lustre/project/nmarom/fcurtis/gator/run_calcs/tmp/bb36a886c4
Binary location is/home/fcurtis/fhi-aims.150205/bin/aims.150205.scalapack.mpi.x
Relaxation failed!
SPE check not passed or full relaxation failure for bb36a886c4

Replica: bb36a886c4
Beginning iteration
No restart file found
--Structure selection--
--Crossover--
Attempting crossover: 1
cross_type:     [4, 1]
Parent A lattice vectors:  9.82308066691 12.8162269434 3.89427132913
Parent B lattice vectors:  16.4765874024 4.99024532683 7.25722869769
Child lattice vectors:  9.82308066691 12.8162269434 3.89427132913
Child angles:    93.314566035 86.6730652842 88.3095942156
No volume check is called.
No lattice vector length check is called.
No center of mass distance check is called.
The new structure has stoms from different molecules sitting too close to each other.
Restarting iteration.

Attempting crossover: 2
cross_type:     [1, 3]
Random Frac: [0.31006022247812715, 0.5662409896110271, 0.6879694960053313]
Parent A lattice vectors:  9.82308066691 12.8162269434 3.89427132913
Parent B lattice vectors:  16.4765874024 4.99024532683 7.25722869769
Child lattice vectors:  14.3904196258 9.40359426358 4.92364601443
Child angles:    99.4893147096 84.5558065521 93.1494688741
No volume check is called.
No lattice vector length check is called.
No center of mass distance check is called.
The new structure has stoms from different molecules sitting too close to each other.
Restarting iteration.

Attempting crossover: 3
cross_type:     [1, 3]
Random Frac: [0.429504896257289, 0.3107379239057868, 0.5027569311543565]
Parent A lattice vectors:  9.82308066691 12.8162269434 3.89427132913
Parent B lattice vectors:  16.4765874024 4.99024532683 7.25722869769
Child lattice vectors:  13.590767201 7.40209445266 5.54582742723
Child angles:    102.945116492 84.9967221513 91.230950422
No volume check is called.
No lattice vector length check is called.
No center of mass distance check is called.
The new structure has stoms from different molecules sitting too close to each other.
Restarting iteration.

Attempting crossover: 4
cross_type:     [4, 3]
Random Frac: [0.4655647082724625, 0.25842248374514903, 0.5923859158828069]
Parent A lattice vectors:  9.82308066691 12.8162269434 3.89427132913
Parent B lattice vectors:  16.4765874024 4.99024532683 7.25722869769
Child lattice vectors:  13.3498955937 6.99373362258 5.24396835568
Child angles:    102.459306719 85.065917788 90.6625015354
No volume check is called.
No lattice vector length check is called.
No center of mass distance check is called.
The new structure has stoms from different molecules sitting too close to each other.
Restarting iteration.

Attempting crossover: 5
cross_type:     [1, 2]
Parent A lattice vectors:  9.82308066691 12.8162269434 3.89427132913
Parent B lattice vectors:  16.4765874024 4.99024532683 7.25722869769
Child lattice vectors:  16.4765874024 4.99024532683 7.25722869769
Child angles:    109.968483052 83.9159302575 90.9718225427
No volume check is called.
No lattice vector length check is called.
No center of mass distance check is called.
The new structure has stoms from different molecules sitting too close to each other.
Restarting iteration.

Attempting crossover: 6
cross_type:     [4, 3]
Random Frac: [0.5637753940364967, 0.6688867973830939, 0.39600256390826577]
Parent A lattice vectors:  9.82308066691 12.8162269434 3.89427132913
Parent B lattice vectors:  16.4765874024 4.99024532683 7.25722869769
Child lattice vectors:  12.6953089476 10.2099529825 5.90693310339
Child angles:    101.964099618 85.5276933094 91.7798253873
No volume check is called.
No lattice vector length check is called.
No center of mass distance check is called.
The new structure has stoms from different molecules sitting too close to each other.
Restarting iteration.

Attempting crossover: 7
cross_type:     [3, 2]
Parent A lattice vectors:  9.82308066691 12.8162269434 3.89427132913
Parent B lattice vectors:  16.4765874024 4.99024532683 7.25722869769
Child lattice vectors:  16.4765874024 4.99024532683 7.25722869769
Child angles:    109.968483052 83.9159302575 90.9718225427
No volume check is called.
No lattice vector length check is called.
No center of mass distance check is called.
The new structure has stoms from different molecules sitting too close to each other.
Restarting iteration.

Attempting crossover: 8
cross_type:     [3, 2]
Parent A lattice vectors:  9.82308066691 12.8162269434 3.89427132913
Parent B lattice vectors:  16.4765874024 4.99024532683 7.25722869769
Child lattice vectors:  16.4765874024 4.99024532683 7.25722869769
Child angles:    109.968483052 83.9159302575 90.9718225427
No volume check is called.
No lattice vector length check is called.
No center of mass distance check is called.
The new structure has stoms from different molecules sitting too close to each other.
Restarting iteration.

Attempting crossover: 9
cross_type:     [3, 3]
Random Frac: [0.5714618013324027, 0.3457438119393978, 0.32486505263915494]
Parent A lattice vectors:  9.82308066691 12.8162269434 3.89427132913
Parent B lattice vectors:  16.4765874024 4.99024532683 7.25722869769
Child lattice vectors:  12.6441735502 7.67567975182 6.14837023726
Child angles:    104.209455216 85.5973577373 90.402258064
No volume check is called.
No lattice vector length check is called.
No center of mass distance check is called.
The new structure has stoms from different molecules sitting too close to each other.
Restarting iteration.

Attempting crossover: 10
cross_type:     [1, 2]
Parent A lattice vectors:  9.82308066691 12.8162269434 3.89427132913
Parent B lattice vectors:  16.4765874024 4.99024532683 7.25722869769
Child lattice vectors:  16.4765874024 4.99024532683 7.25722869769
Child angles:    109.968483052 83.9159302575 90.9718225427
No volume check is called.
No lattice vector length check is called.
No center of mass distance check is called.
The new structure has stoms from different molecules sitting too close to each other.
Restarting iteration.

post crossover geo: 
lattice_vector 16.31772119 -2.17082453 0.70528608
lattice_vector 0.59417539 4.92090823 -0.57807112
lattice_vector 0.24392225 -1.71485397 7.04749219
atom -2.94897 -4.79031 1.98531 S
atom -4.30467 -2.48622 2.91753 C
atom -1.60479 -2.30136 2.47498 C
atom -2.90562 -1.50982 3.39184 S
atom -1.64597 -3.60280 1.89988 C
atom -4.32122 -3.73495 2.34646 C
atom -5.58630 -4.28547 2.00688 C
atom -5.52583 -1.83771 3.22450 C
atom -6.64579 -4.68578 1.71483 N
atom -6.51810 -1.29513 3.52447 N
atom -0.42226 -3.86898 1.28873 C
atom -0.05671 -5.01041 0.54870 C
atom 0.23412 -5.92597 -0.11711 N
atom -0.49028 -1.60975 2.33654 N
atom 0.65265 -2.51116 1.52258 S
atom 2.60251 4.72723 1.68915 S
atom 4.69100 2.95141 1.00038 C
atom 2.28748 1.88469 1.78633 C
atom 4.02500 1.49922 1.76460 S
atom 1.72683 3.19360 1.76119 C
atom 4.13361 4.20354 0.96939 C
atom 4.80907 5.25691 0.30179 C
atom 5.92640 2.69405 0.35410 C
atom 5.32757 6.13214 -0.27238 N
atom 6.93349 2.42417 -0.17554 N
atom 0.34097 3.10359 1.86069 C
atom -0.61975 4.13300 1.83954 C
atom -1.44106 4.96400 1.81109 N
atom 1.45495 0.86830 1.88566 N
atom -0.10832 1.41997 2.01371 S

--Mutation--
No mutation applied.
--Cell Checks--
Cell checked! Reasonable angles observed!
No volume check is called.
No lattice vector length check is called.
No center of mass distance check is called.
The new structure has stoms from different molecules sitting too close to each other.
Restarting iteration.


Replica: bb36a886c4
Beginning iteration
No restart file found
--Structure selection--
--Crossover--
Attempting crossover: 1
cross_type:     [2, 1]
Parent A lattice vectors:  5.96761715864 11.040738052 7.9200822439
Parent B lattice vectors:  12.0392345582 3.94736821317 11.8583646694
Child lattice vectors:  5.96761715864 11.040738052 7.9200822439
Child angles:    92.3873869613 85.3494368903 110.252769784
No volume check is called.
No lattice vector length check is called.
No center of mass distance check is called.
The new structure has passed the interatomic distance check.
The new structure has passed through all the cell check being called.
Crossover: 1 successful
post crossover geo: 
lattice_vector 5.92804404 -0.63661291 -0.25587578
lattice_vector -2.67141945 10.69357689 0.63939671
lattice_vector 0.92285024 -0.57914506 7.84478433
atom -4.80238 0.27352 10.53383 S
atom -2.59868 1.43186 11.91295 C
atom -2.63174 1.54176 9.14458 C
atom -1.59993 1.92751 10.54191 S
atom -3.91757 0.93043 9.15552 C
atom -3.80982 0.78892 11.90396 C
atom -4.44175 0.41919 13.11843 C
atom -1.98929 1.77845 13.14797 C
atom -5.02790 0.05088 14.06126 N
atom -1.44467 2.09632 14.13403 N
atom -4.41397 0.86349 7.85812 C
atom -5.63339 0.29985 7.43961 C
atom -6.62899 -0.19897 7.08756 N
atom -2.15280 1.90695 7.97390 N
atom -3.22738 1.54027 6.75729 S
atom 4.78694 -1.83777 0.48984 S
atom 2.60626 -0.64786 -0.89898 C
atom 2.64246 -0.51490 1.86847 C
atom 1.61805 -0.12061 0.46805 S
atom 3.91592 -1.15152 1.86258 C
atom 3.80445 -1.31447 -0.88453 C
atom 4.42858 -1.70727 -2.09585 C
atom 2.00334 -0.30042 -2.13688 C
atom 5.00586 -2.09559 -3.03611 N
atom 1.46354 0.01535 -3.12628 N
atom 4.41129 -1.21725 3.16049 C
atom 5.61939 -1.80154 3.58357 C
atom 6.60438 -2.31818 3.93978 N
atom 2.17113 -0.13045 3.03610 N
atom 3.23865 -0.50795 4.25563 S

--Mutation--
No mutation applied.
--Cell Checks--
Cell checked! Reasonable angles observed!
No volume check is called.
No lattice vector length check is called.
No center of mass distance check is called.
The new structure has stoms from different molecules sitting too close to each other.
Restarting iteration.


Replica: bb36a886c4
Beginning iteration
No restart file found
--Structure selection--
--Crossover--
Attempting crossover: 1
cross_type:     [4, 1]
Parent A lattice vectors:  8.97473747079 14.6182412384 3.95752806212
Parent B lattice vectors:  3.85371124134 6.57515336584 19.4590630485
Child lattice vectors:  8.97473747079 14.6182412384 3.95752806212
Child angles:    90.0534147399 90.0432759774 79.7046552801
No volume check is called.
No lattice vector length check is called.
No center of mass distance check is called.
The new structure has passed the interatomic distance check.
The new structure has passed through all the cell check being called.
Crossover: 1 successful
post crossover geo: 
lattice_vector 8.93264584 0.75692231 -0.42522886
lattice_vector 1.41972519 14.53829253 0.56161161
lattice_vector 0.1998573 -0.17575914 3.94856862
atom 0.65866 2.32732 19.28477 S
atom 0.62793 0.26594 21.19652 C
atom 0.55973 -0.39879 18.55075 C
atom -0.11836 -0.92475 20.10982 S
atom 0.90248 0.93736 18.22457 C
atom 0.94474 1.55700 20.86320 C
atom 1.57484 2.42874 21.78620 C
atom 0.90682 -0.22561 22.49592 C
atom 2.12110 3.19678 22.47976 N
atom 1.13190 -0.63726 23.56546 N
atom 1.42900 0.98930 16.93546 C
atom 1.94095 2.12521 16.27779 C
atom 2.39681 3.07936 15.77973 N
atom 0.77652 -1.31891 17.63040 N
atom 1.39325 -0.62131 16.25226 S
atom -0.80405 2.87627 0.23547 S
atom -3.53216 2.22566 -0.25042 C
atom -2.97689 4.56045 1.09484 C
atom -4.34422 3.57549 0.55231 S
atom -1.58591 4.29660 0.93034 C
atom -2.19525 1.95012 -0.37388 C
atom -1.78254 0.78866 -1.07691 C
atom -4.50975 1.38324 -0.84129 C
atom -1.42354 -0.15230 -1.66879 N
atom -5.38415 0.77775 -1.32551 N
atom -0.85909 5.35200 1.47926 C
atom 0.53515 5.53015 1.53212 C
atom 1.68817 5.72578 1.58636 N
atom -3.30679 5.67778 1.71799 N
atom -1.95104 6.53530 2.16004 S

--Mutation--
No mutation applied.
--Cell Checks--
Cell checked! Reasonable angles observed!
No volume check is called.
No lattice vector length check is called.
No center of mass distance check is called.
The new structure has stoms from different molecules sitting too close to each other.
Restarting iteration.


Replica: a37e3c7bf7
Beginning iteration
No restart file found
--Structure selection--
--Crossover--
Attempting crossover: 1
cross_type:     [4, 3]
Random Frac: [0.3942941525866848, 0.7402752692496763, 0.49249679238958805]
Parent A lattice vectors:  16.4765874024 4.99024532683 7.25722869769
Parent B lattice vectors:  9.86874789118 13.4093501154 3.90523218828
Child lattice vectors:  12.4339136358 7.13190017822 5.53677843292
Child angles:    101.617383974 86.9826614099 90.375974675
No volume check is called.
No lattice vector length check is called.
No center of mass distance check is called.
The new structure has passed the interatomic distance check.
The new structure has passed through all the cell check being called.
Crossover: 1 successful
post crossover geo: 
lattice_vector 12.4092177612 -0.771667602604 0.134357615176
lattice_vector 0.397918116467 7.11794096511 -0.201439176556
lattice_vector 0.172556864744 -0.972624530182 5.44794833556
atom 2.17945 4.64533 1.69632 S
atom 3.52858 2.25415 2.42962 C
atom 0.78307 2.21795 2.34892 C
atom 2.15874 1.27955 2.97692 S
atom 0.80098 3.54979 1.84096 C
atom 3.52627 3.52513 1.90518 C
atom 4.75543 4.09541 1.48191 C
atom 4.77957 1.60825 2.60589 C
atom 5.76372 4.55173 1.10309 N
atom 5.82005 1.10467 2.78216 N
atom -0.48703 3.92401 1.47154 C
atom -0.90531 5.13429 0.88776 C
atom -1.25307 6.11876 0.36417 N
atom -0.38543 1.60490 2.38393 N
atom -1.58782 2.61564 1.82411 S
atom 5.29475 -2.72846 7.48536 S
atom 2.45332 -2.53166 7.60302 C
atom 3.79249 -1.09159 5.67687 C
atom 2.15575 -1.40384 6.28195 S
atom 5.02612 -1.64899 6.12017 C
atom 3.64358 -3.05709 8.03857 C
atom 3.65831 -4.01491 9.08126 C
atom 1.24337 -2.92476 8.23930 C
atom 3.73412 -4.82759 9.91866 N
atom 0.23666 -3.22967 8.75049 N
atom 6.05925 -1.17433 5.31804 C
atom 7.43754 -1.43134 5.45013 C
atom 8.58733 -1.61984 5.56739 N
atom 3.84423 -0.25086 4.66283 N
atom 5.40599 -0.08602 4.10842 S

--Mutation--
No mutation applied.
--Cell Checks--
Cell checked! Reasonable angles observed!
No volume check is called.
No lattice vector length check is called.
No center of mass distance check is called.
The new structure has passed the interatomic distance check.
The new structure has passed through all the cell check being called.
pre relax geo: 
lattice_vector 12.4339136358 7.3725747729e-18 0.0
lattice_vector -0.0467991644524 7.1317466297 -2.77555756156e-17
lattice_vector 0.291445799155 -1.11308094684 5.41590487058
atom 1.90516 4.72253 1.80962 S
atom 3.40793 2.40040 2.46155 C
atom 0.66924 2.19539 2.40464 C
atom 2.10721 1.32727 2.99291 S
atom 0.59898 3.53954 1.93509 C
atom 3.32108 3.68303 1.97396 C
atom 4.50783 4.34054 1.55620 C
atom 4.69842 1.82904 2.60784 C
atom 5.48171 4.86932 1.18159 N
atom 5.77000 1.38654 2.76013 N
atom -0.71369 3.84299 1.58825 C
atom -1.21256 5.04081 1.04336 C
atom -1.62639 6.01604 0.55149 N
atom -0.45850 1.50995 2.43253 N
atom -1.72729 2.45912 1.91293 S
atom 5.19620 5.64197 1.93967 S
atom 2.34948 5.65784 2.08860 C
atom 3.57580 7.23229 0.19269 C
atom 1.96823 6.80168 0.80329 S
atom 4.84636 6.74062 0.60861 C
atom 3.57469 5.19558 2.49808 C
atom 3.66010 4.21154 3.51258 C
atom 1.17320 5.17230 2.72420 C
atom 3.79525 3.38189 4.32551 N
atom 0.19294 4.79094 3.23547 N
atom 5.83932 7.30117 -0.18883 C
atom 7.23225 7.12698 -0.07664 C
atom 8.39272 7.00730 0.02475 N
atom 3.56431 8.10285 -0.79714 N
atom 5.10674 8.38029 -1.36066 S

--SPE Check and Full Relaxation--
Replica a37e3c7bf7 executing FHI-aims and checking the SPE.
Aims relaxation being called. out_location=/lustre/project/nmarom/fcurtis/gator/run_calcs/tmp/a37e3c7bf7
Binary location is/home/fcurtis/fhi-aims.150205/bin/aims.150205.scalapack.mpi.x
SPE extracted
Structure passed SPE check
Replica a37e3c7bf7 executing FHI-aims for a full unit cell relax
Aims relaxation being called. out_location=/lustre/project/nmarom/fcurtis/gator/run_calcs/tmp/a37e3c7bf7
Binary location is/home/fcurtis/fhi-aims.150205/bin/aims.150205.scalapack.mpi.x
Relaxation failed!
SPE check not passed or full relaxation failure for a37e3c7bf7

Replica: bb36a886c4
Beginning iteration
No restart file found
--Structure selection--
--Crossover--
Attempting crossover: 1
cross_type:     [2, 3]
Random Frac: [0.4491271642923873, 0.4455542973261659, 0.5953051155436796]
Parent A lattice vectors:  9.86874789118 13.4093501154 3.90523218828
Parent B lattice vectors:  8.97473747079 14.6182412384 3.95752806212
Child lattice vectors:  9.3698364239 14.0578696088 3.92592823713
Child angles:    90.2702209672 90.170940341 84.2604808914
No volume check is called.
No lattice vector length check is called.
No center of mass distance check is called.
The new structure has passed the interatomic distance check.
The new structure has passed through all the cell check being called.
Crossover: 1 successful
post crossover geo: 
lattice_vector 9.35135251211 0.47945793898 -0.340823839588
lattice_vector 0.715221204516 14.0222058602 0.699928127121
lattice_vector 0.142377251433 -0.221349397617 3.91709658874
atom 0.79700 -2.87674 1.87677 S
atom 3.46378 -2.16681 1.17980 C
atom 3.04213 -4.61339 2.36503 C
atom 4.34994 -3.57721 1.77222 S
atom 1.64231 -4.34597 2.36469 C
atom 2.12182 -1.89031 1.21659 C
atom 1.64331 -0.67308 0.66552 C
atom 4.37811 -1.26817 0.57062 C
atom 1.22853 0.31440 0.19931 N
atom 5.19779 -0.61536 0.05341 N
atom 0.97262 -5.44972 2.89101 C
atom -0.40959 -5.63986 3.06997 C
atom -1.55203 -5.84312 3.22491 N
atom 3.43101 -5.77782 2.85323 N
atom 2.12534 -6.67978 3.35314 S
atom -0.80405 2.87627 0.23547 S
atom -3.53216 2.22566 -0.25042 C
atom -2.97689 4.56045 1.09484 C
atom -4.34422 3.57549 0.55231 S
atom -1.58591 4.29660 0.93034 C
atom -2.19525 1.95012 -0.37388 C
atom -1.78254 0.78866 -1.07691 C
atom -4.50975 1.38324 -0.84129 C
atom -1.42354 -0.15230 -1.66879 N
atom -5.38415 0.77775 -1.32551 N
atom -0.85909 5.35200 1.47926 C
atom 0.53515 5.53015 1.53212 C
atom 1.68817 5.72578 1.58636 N
atom -3.30679 5.67778 1.71799 N
atom -1.95104 6.53530 2.16004 S

--Mutation--
No mutation applied.
--Cell Checks--
Cell checked! Reasonable angles observed!
No volume check is called.
No lattice vector length check is called.
No center of mass distance check is called.
The new structure has passed the interatomic distance check.
The new structure has passed through all the cell check being called.
pre relax geo: 
lattice_vector 9.3698364239 -3.46944695195e-18 5.55111512313e-17
lattice_vector 1.40587207093 13.9873950991 1.11022302463e-16
lattice_vector -0.0117128787068 -0.0174316018999 3.925872065
atom 1.98583 11.17987 2.05294 S
atom 4.70903 11.71935 1.42474 C
atom 4.11991 9.36363 2.71775 C
atom 5.49972 10.30092 2.12355 S
atom 2.73655 9.69917 2.64893 C
atom 3.38252 12.06308 1.39475 C
atom 2.98729 13.27102 0.76312 C
atom 5.68969 12.53793 0.80597 C
atom 2.64081 14.25125 0.23055 N
atom 6.55998 13.12091 0.28802 N
atom 1.99255 8.65955 3.20518 C
atom 0.59682 8.54750 3.33967 C
atom -0.55940 8.40927 3.46023 N
atom 4.43068 8.20938 3.28042 N
atom 3.06325 7.40087 3.77505 S
atom 8.70598 2.92082 0.05460 S
atom 5.96764 2.38002 -0.50303 C
atom 6.59235 4.75353 0.74013 C
atom 5.19705 3.80929 0.19639 S
atom 7.97307 4.41314 0.64392 C
atom 7.29231 2.03282 -0.55978 C
atom 7.67034 0.81640 -1.18507 C
atom 4.97037 1.55618 -1.08717 C
atom 8.00201 -0.17150 -1.71295 N
atom 4.08432 0.96930 -1.57313 N
atom 8.73249 5.45947 1.16538 C
atom 10.13118 5.57142 1.26331 C
atom 11.28996 5.71274 1.35230 N
atom 6.29762 5.91758 1.29120 N
atom 7.67849 6.72989 1.74082 S

--SPE Check and Full Relaxation--
Replica bb36a886c4 executing FHI-aims and checking the SPE.
Aims relaxation being called. out_location=/lustre/project/nmarom/fcurtis/gator/run_calcs/tmp/bb36a886c4
Binary location is/home/fcurtis/fhi-aims.150205/bin/aims.150205.scalapack.mpi.x
SPE extracted
Structure passed SPE check
Replica bb36a886c4 executing FHI-aims for a full unit cell relax
Aims relaxation being called. out_location=/lustre/project/nmarom/fcurtis/gator/run_calcs/tmp/bb36a886c4
Binary location is/home/fcurtis/fhi-aims.150205/bin/aims.150205.scalapack.mpi.x
post relax geo: 
lattice_vector 9.18367666 0.22981472 -0.00926856
lattice_vector 2.32140355 14.34170875 0.01506798
lattice_vector 0.03049849 -0.01890584 3.9448515
atom 2.94159 11.54729 2.06569 S
atom 5.67984 12.07286 1.48678 C
atom 5.04656 9.70455 2.74176 C
atom 6.44404 10.64215 2.19151 S
atom 3.66723 10.04802 2.64716 C
atom 4.35594 12.42528 1.43733 C
atom 3.97286 13.64111 0.81266 C
atom 6.68183 12.88077 0.88905 C
atom 3.62460 14.62376 0.28523 N
atom 7.58102 13.45096 0.40648 N
atom 2.90392 9.00206 3.16375 C
atom 1.50320 8.89459 3.25053 C
atom 0.34243 8.75966 3.32006 N
atom 5.33904 8.53841 3.28775 N
atom 3.95653 7.72735 3.73501 S
atom 8.51153 3.13837 0.05994 S
atom 5.76804 2.61470 -0.49028 C
atom 6.41267 4.97518 0.77058 C
atom 5.00995 4.04135 0.23041 S
atom 7.79155 4.63533 0.65328 C
atom 7.09058 2.26128 -0.55466 C
atom 7.46854 1.04796 -1.18610 C
atom 4.75929 1.81118 -1.08370 C
atom 7.81321 0.06742 -1.71964 N
atom 3.85507 1.25334 -1.57123 N
atom 8.55942 5.68007 1.16464 C
atom 9.96085 5.79400 1.22431 C
atom 11.12116 5.94101 1.27219 N
atom 6.12592 6.13477 1.33395 N
atom 7.51357 6.94619 1.76584 S

FHI-aims relaxation wall time (s):   739.161
Ensuring cell is lower triangular...
post second check geo: 
lattice_vector 9.18655635737 2.03050738116e-17 -1.73472347598e-18
lattice_vector 2.67943881965 14.2791582023 -1.73472347598e-18
lattice_vector 0.0260359081607 -0.0147532105562 3.94490119268
atom 3.22745 11.47265 2.05467 S
atom 5.97858 11.92884 1.47796 C
atom 5.28498 9.57867 2.73517 C
atom 6.70604 10.48034 2.18523 S
atom 3.91477 9.95643 2.63872 C
atom 4.66396 12.31420 1.42672 C
atom 4.31205 13.53846 0.80016 C
atom 7.00107 12.71068 0.88030 C
atom 3.98901 14.52886 0.27118 N
atom 7.91473 13.25760 0.39797 N
atom 3.12501 8.93053 3.15580 C
atom 1.72196 8.85824 3.24125 C
atom 0.55811 8.75248 3.30973 N
atom 5.54765 8.40626 3.28289 N
atom 4.14483 7.63060 3.72970 S
atom 8.58731 2.92455 0.06496 S
atom 5.83213 2.46898 -0.48747 C
atom 6.53434 4.81416 0.77118 C
atom 5.10925 3.91505 0.23069 S
atom 7.90441 4.43978 0.65573 C
atom 7.14548 2.08251 -0.55004 C
atom 7.49361 0.85933 -1.17961 C
atom 4.80420 1.69021 -1.08096 C
atom 7.81418 -0.13019 -1.71159 N
atom 3.88680 1.15456 -1.56874 N
atom 8.69766 5.46562 1.16661 C
atom 10.10144 5.54453 1.22760 C
atom 11.26501 5.66254 1.27650 N
atom 6.27613 5.98127 1.33284 N
atom 7.68320 6.75825 1.76518 S

--Comparison--
Comparison begins: comparing with 12 structures in the commmon pool
Comparison test finds the new structure to be acceptible! Minimum resi=45.144759
E_stuct: -93472.5325075  GM: -93473.4604755
Structure index: 2cfcf5abc4
old top energies:    [[-93473.46047554]
 [-93473.45024293]
 [-93473.3684607 ]
 [-93473.32260236]
 [-93473.26537317]
 [-93473.16116724]
 [-93473.15632061]
 [-93473.08444775]
 [-93473.01366212]
 [-93472.94809081]
 [-93471.46143999]
 [-93470.79589083]]
new top energies:    [[-93473.46047554]
 [-93473.45024293]
 [-93473.3684607 ]
 [-93473.32260236]
 [-93473.26537317]
 [-93473.16116724]
 [-93473.15632061]
 [-93473.08444775]
 [-93473.01366212]
 [-93472.94809081]
 [-93472.53250746]
 [-93471.46143999]
 [-93470.79589083]]
Top 100 energies have changed.
Convergence counter reset.
Convergence iteration:  0
Success!: 
  stoichiometry-- S:6_C:16_N:8
  cascade-- 0
  structure index-- 3358b3faf3
  replica child count-- 1
  collection count -- 13
  replica-- bb36a886c4
writing hierachy
bb36a886c4 finished iteration
Cumulative additions to common pool: 3
Avg addition per replica:            1.0
Total size of common pool:           13
GA not converged yet.
GA Iteration time: -- 0:12:38.648534
Current Wallclock: -- 2015-07-20 23:48:59.020064

Replica: bb36a886c4
Beginning iteration
No restart file found
--Structure selection--
--Crossover--
Attempting crossover: 1
cross_type:     [1, 3]
Random Frac: [0.7147928539805724, 0.5286054596132037, 0.2534299835011962]
Parent A lattice vectors:  9.86874789118 13.4093501154 3.90523218828
Parent B lattice vectors:  3.85371124134 6.57515336584 19.4590630485
Child lattice vectors:  8.15143664769 10.1781357028 15.5164202561
Child angles:    88.7962411776 91.108517931 91.9186531994
No volume check is called.
No lattice vector length check is called.
No center of mass distance check is called.
The new structure has stoms from different molecules sitting too close to each other.
Restarting iteration.

Attempting crossover: 2
cross_type:     [3, 3]
Random Frac: [0.37694388868758416, 0.6659069906401438, 0.32770598652978183]
Parent A lattice vectors:  9.86874789118 13.4093501154 3.90523218828
Parent B lattice vectors:  3.85371124134 6.57515336584 19.4590630485
Child lattice vectors:  6.11831112132 11.1182361628 14.3609281639
Child angles:    88.6287876027 90.7337430093 92.2164503261
No volume check is called.
No lattice vector length check is called.
No center of mass distance check is called.
The new structure has passed the interatomic distance check.
The new structure has passed through all the cell check being called.
Crossover: 2 successful
post crossover geo: 
lattice_vector 6.1173241818 -0.0517343383179 -0.0969504527457
lattice_vector -0.326002984735 11.0946835653 0.645673300874
lattice_vector 0.0393903957565 -0.489726167725 14.3525215347
atom 2.17945 4.64533 1.69632 S
atom 3.52858 2.25415 2.42962 C
atom 0.78307 2.21795 2.34892 C
atom 2.15874 1.27955 2.97692 S
atom 0.80098 3.54979 1.84096 C
atom 3.52627 3.52513 1.90518 C
atom 4.75543 4.09541 1.48191 C
atom 4.77957 1.60825 2.60589 C
atom 5.76372 4.55173 1.10309 N
atom 5.82005 1.10467 2.78216 N
atom -0.48703 3.92401 1.47154 C
atom -0.90531 5.13429 0.88776 C
atom -1.25307 6.11876 0.36417 N
atom -0.38543 1.60490 2.38393 N
atom -1.58782 2.61564 1.82411 S
atom -0.66859 -2.31771 9.41896 S
atom -0.62357 -0.37419 11.45050 C
atom -0.55690 0.44729 8.84902 C
atom 0.12358 0.87789 10.43604 S
atom -0.90665 -0.86533 8.44412 C
atom -0.94587 -1.64208 11.04179 C
atom -1.57415 -2.56613 11.91390 C
atom -0.89665 0.03822 12.77850 C
atom -2.11786 -3.37405 12.56278 N
atom -1.12327 0.37983 13.87209 N
atom -1.43379 -0.83747 7.15448 C
atom -1.95208 -1.92911 6.42965 C
atom -2.41338 -2.84976 5.87658 N
atom -0.76825 1.42158 7.98475 N
atom -1.38895 0.81061 6.56817 S

--Mutation--
No mutation applied.
--Cell Checks--
Cell checked! Reasonable angles observed!
No volume check is called.
No lattice vector length check is called.
No center of mass distance check is called.
The new structure has passed the interatomic distance check.
The new structure has passed through all the cell check being called.
pre relax geo: 
lattice_vector 6.11831112132 1.73472347598e-18 0.0
lattice_vector -0.42999453961 11.1099180945 1.11022302463e-16
lattice_vector -0.18390434203 0.336794907878 14.3558004343
atom 2.11294 4.75537 1.45895 S
atom 3.47045 2.42303 2.34946 C
atom 0.72696 2.35658 2.22890 C
atom 2.10040 1.46876 2.93097 S
atom 0.74167 3.65712 1.64534 C
atom 3.46570 3.66168 1.75265 C
atom 4.69655 4.21816 1.31611 C
atom 4.72390 1.80007 2.58183 C
atom 5.70683 4.66135 0.92713 N
atom 5.76569 1.31722 2.80277 N
atom -0.54345 3.99741 1.23526 C
atom -0.96264 5.16815 0.57634 C
atom -1.31038 6.11758 -0.00840 N
atom -0.43671 1.73566 2.28126 N
atom -1.63859 2.70124 1.64575 S
atom 4.89018 9.33151 9.52554 S
atom 4.88657 11.38898 11.44212 C
atom 4.98750 12.06009 8.79894 C
atom 5.63908 12.58758 10.36875 S
atom 4.65532 10.72315 8.46506 C
atom 4.58152 10.09673 11.10228 C
atom 3.94733 9.21852 12.01647 C
atom 4.58900 11.87450 12.73980 C
atom 3.40026 8.44419 12.70243 N
atom 4.34220 12.27629 13.80828 N
atom 4.14847 10.67186 7.16803 C
atom 3.65098 9.53556 6.49947 C
atom 3.20631 8.58035 5.99338 N
atom 4.78165 12.98105 7.87681 N
atom 4.18866 12.28385 6.48846 S

--SPE Check and Full Relaxation--
Replica bb36a886c4 executing FHI-aims and checking the SPE.
Aims relaxation being called. out_location=/lustre/project/nmarom/fcurtis/gator/run_calcs/tmp/bb36a886c4
Binary location is/home/fcurtis/fhi-aims.150205/bin/aims.150205.scalapack.mpi.x
SPE extracted
Structure passed SPE check
Replica bb36a886c4 executing FHI-aims for a full unit cell relax
Aims relaxation being called. out_location=/lustre/project/nmarom/fcurtis/gator/run_calcs/tmp/bb36a886c4
Binary location is/home/fcurtis/fhi-aims.150205/bin/aims.150205.scalapack.mpi.x
Relaxation failed!
SPE check not passed or full relaxation failure for bb36a886c4

Replica: a37e3c7bf7
Beginning iteration
No restart file found
--Structure selection--
--Crossover--
Attempting crossover: 1
cross_type:     [3, 3]
Random Frac: [0.2652728042363348, 0.5902524742710475, 0.7087304949178528]
Parent A lattice vectors:  9.86874789118 13.4093501154 3.90523218828
Parent B lattice vectors:  3.85371124134 6.57515336584 19.4590630485
Child lattice vectors:  5.44679069209 10.6000970626 8.43391144629
Child angles:    89.2153938622 90.2028960874 92.9088098408
No volume check is called.
No lattice vector length check is called.
No center of mass distance check is called.
The new structure has stoms from different molecules sitting too close to each other.
Restarting iteration.

Attempting crossover: 2
cross_type:     [4, 1]
Parent A lattice vectors:  9.86874789118 13.4093501154 3.90523218828
Parent B lattice vectors:  3.85371124134 6.57515336584 19.4590630485
Child lattice vectors:  9.86874789118 13.4093501154 3.90523218828
Child angles:    89.9953758099 89.9115262352 89.9731913726
No volume check is called.
No lattice vector length check is called.
No center of mass distance check is called.
The new structure has passed the interatomic distance check.
The new structure has passed through all the cell check being called.
Crossover: 2 successful
post crossover geo: 
lattice_vector 9.86491337 0.13913654 -0.23729763
lattice_vector -0.16146029 13.37999 0.87204856
lattice_vector 0.10330169 -0.25234215 3.89570156
atom 0.65866 2.32732 19.28477 S
atom 0.62793 0.26594 21.19652 C
atom 0.55973 -0.39879 18.55075 C
atom -0.11836 -0.92475 20.10982 S
atom 0.90248 0.93736 18.22457 C
atom 0.94474 1.55700 20.86320 C
atom 1.57484 2.42874 21.78620 C
atom 0.90682 -0.22561 22.49592 C
atom 2.12110 3.19678 22.47976 N
atom 1.13190 -0.63726 23.56546 N
atom 1.42900 0.98930 16.93546 C
atom 1.94095 2.12521 16.27779 C
atom 2.39681 3.07936 15.77973 N
atom 0.77652 -1.31891 17.63040 N
atom 1.39325 -0.62131 16.25226 S
atom -2.19187 -4.61319 3.16598 S
atom -3.49563 -2.34042 4.26598 C
atom -0.75790 -2.28278 4.04914 C
atom -2.09680 -1.43894 4.86339 S
atom -0.80529 -3.53872 3.37642 C
atom -3.52345 -3.53395 3.58410 C
atom -4.77397 -4.04964 3.15344 C
atom -4.73443 -1.72720 4.58619 C
atom -5.80107 -4.45793 2.77033 N
atom -5.76243 -1.25159 4.87644 N
atom 0.46070 -3.85645 2.89482 C
atom 0.84594 -4.97970 2.13962 C
atom 1.16568 -5.88646 1.47644 N
atom 0.41206 -1.67371 4.10111 N
atom 1.58124 -2.59887 3.35374 S

--Mutation--
No mutation applied.
--Cell Checks--
Cell checked! Reasonable angles observed!
No volume check is called.
No lattice vector length check is called.
No center of mass distance check is called.
The new structure has passed the interatomic distance check.
The new structure has passed through all the cell check being called.
pre relax geo: 
lattice_vector 9.86874789118 1.90819582357e-17 2.77555756156e-17
lattice_vector 0.00627421882081 13.4093486475 -1.11022302463e-16
lattice_vector 0.00603029507475 0.000312359377298 3.90522751993
atom 0.20339 3.56709 3.48322 S
atom 0.09763 1.63497 5.52301 C
atom 0.08371 0.80045 2.92493 C
atom -0.63902 0.38554 4.49740 S
atom 0.45301 2.10816 2.52160 C
atom 0.44054 2.89754 5.11483 C
atom 1.06049 3.81952 5.99488 C
atom 0.33824 1.22552 6.85805 C
atom 1.60069 4.62415 6.65068 N
atom 0.53171 0.88152 7.95726 N
atom 1.01106 2.06956 1.24535 C
atom 1.55463 3.15379 0.52850 C
atom 2.03575 4.06775 -0.01876 N
atom 0.30958 -0.18022 2.07175 N
atom 0.96903 0.41850 0.66714 S
atom 7.54284 9.03963 3.40232 S
atom 6.24518 11.39527 4.32010 C
atom 8.98787 11.40444 4.16825 C
atom 7.64180 12.31613 4.89257 S
atom 8.93896 10.10809 3.57725 C
atom 6.21694 10.16036 3.71642 C
atom 4.96999 9.63343 3.28901 C
atom 5.00781 12.04347 4.56900 C
atom 3.94674 9.21397 2.90767 N
atom 3.97993 12.54977 4.80216 N
atom 10.21157 9.74389 3.14891 C
atom 10.59898 8.56917 2.47781 C
atom 10.92176 7.61727 1.88289 N
atom 10.16471 12.00091 4.20982 N
atom 11.33836 11.01454 3.55325 S

--SPE Check and Full Relaxation--
Replica a37e3c7bf7 executing FHI-aims and checking the SPE.
Aims relaxation being called. out_location=/lustre/project/nmarom/fcurtis/gator/run_calcs/tmp/a37e3c7bf7
Binary location is/home/fcurtis/fhi-aims.150205/bin/aims.150205.scalapack.mpi.x
SPE extracted
Structure passed SPE check
Replica a37e3c7bf7 executing FHI-aims for a full unit cell relax
Aims relaxation being called. out_location=/lustre/project/nmarom/fcurtis/gator/run_calcs/tmp/a37e3c7bf7
Binary location is/home/fcurtis/fhi-aims.150205/bin/aims.150205.scalapack.mpi.x
Relaxation failed!
SPE check not passed or full relaxation failure for a37e3c7bf7

Replica: 63d78218dd
Beginning iteration
No restart file found
--Structure selection--
--Crossover--
Attempting crossover: 1
cross_type:     [1, 3]
Random Frac: [0.34357084140903693, 0.6646668570446583, 0.39956544067169014]
Parent A lattice vectors:  9.86874789118 13.4093501154 3.90523218828
Parent B lattice vectors:  3.85371124134 6.57515336584 19.4590630485
Child lattice vectors:  5.91759054396 11.1097403586 13.2430482078
Child angles:    88.6870169805 90.6444130433 92.3336751033
No volume check is called.
No lattice vector length check is called.
No center of mass distance check is called.
The new structure has passed the interatomic distance check.
The new structure has passed through all the cell check being called.
Crossover: 1 successful
post crossover geo: 
lattice_vector 5.91659030103 -0.0619580448678 -0.0894329709381
lattice_vector -0.326613757538 11.0862006422 0.64483300923
lattice_vector 0.0462216788347 -0.464352914961 13.2348239792
atom 2.17945 4.64533 1.69632 S
atom 3.52858 2.25415 2.42962 C
atom 0.78307 2.21795 2.34892 C
atom 2.15874 1.27955 2.97692 S
atom 0.80098 3.54979 1.84096 C
atom 3.52627 3.52513 1.90518 C
atom 4.75543 4.09541 1.48191 C
atom 4.77957 1.60825 2.60589 C
atom 5.76372 4.55173 1.10309 N
atom 5.82005 1.10467 2.78216 N
atom -0.48703 3.92401 1.47154 C
atom -0.90531 5.13429 0.88776 C
atom -1.25307 6.11876 0.36417 N
atom -0.38543 1.60490 2.38393 N
atom -1.58782 2.61564 1.82411 S
atom -2.19187 -4.61319 3.16598 S
atom -3.49563 -2.34042 4.26598 C
atom -0.75790 -2.28278 4.04914 C
atom -2.09680 -1.43894 4.86339 S
atom -0.80529 -3.53872 3.37642 C
atom -3.52345 -3.53395 3.58410 C
atom -4.77397 -4.04964 3.15344 C
atom -4.73443 -1.72720 4.58619 C
atom -5.80107 -4.45793 2.77033 N
atom -5.76243 -1.25159 4.87644 N
atom 0.46070 -3.85645 2.89482 C
atom 0.84594 -4.97970 2.13962 C
atom 1.16568 -5.88646 1.47644 N
atom 0.41206 -1.67371 4.10111 N
atom 1.58124 -2.59887 3.35374 S

--Mutation--
No mutation applied.
--Cell Checks--
Cell checked! Reasonable angles observed!
No volume check is called.
No lattice vector length check is called.
No center of mass distance check is called.
The new structure has passed the interatomic distance check.
The new structure has passed through all the cell check being called.
pre relax geo: 
lattice_vector 5.91759054396 -6.93889390391e-18 0.0
lattice_vector -0.452378112127 11.1005263335 -1.11022302463e-16
lattice_vector -0.148943135948 0.297631521152 13.2388654066
atom 2.10481 4.75952 1.45716 S
atom 3.46766 2.42987 2.34652 C
atom 0.72421 2.35801 2.22828 C
atom 2.09999 1.47289 2.92919 S
atom 0.73586 3.65857 1.64471 C
atom 3.45997 3.66850 1.74971 C
atom 4.68935 4.22740 1.31213 C
atom 4.72254 1.80938 2.57782 C
atom 5.69842 4.67258 0.92229 N
atom 5.76546 1.32857 2.79788 N
atom -0.55027 3.99633 1.23572 C
atom -0.97233 5.16625 0.57716 C
atom -1.32243 6.11499 -0.00729 N
atom -0.43819 1.73480 2.28163 N
atom -1.64251 2.69801 1.64713 S
atom 3.27417 6.65240 3.39452 S
atom 1.93021 8.96973 4.34270 C
atom 4.67015 9.04581 4.16257 C
atom 3.31033 9.91983 4.90735 S
atom 4.64608 7.75282 3.56274 C
atom 1.92520 7.73874 3.73041 C
atom 0.68679 7.18502 3.31211 C
atom 0.68036 9.58628 4.60906 C
atom -0.33007 6.74379 2.93834 N
atom -0.35684 10.06611 4.85649 N
atom 5.92247 7.42229 3.11864 C
atom 6.33081 6.26193 2.43510 C
atom 6.67002 5.32224 1.82999 N
atom 5.83275 9.67006 4.19630 N
atom 7.02271 8.71677 3.52050 S

--SPE Check and Full Relaxation--
Replica 63d78218dd executing FHI-aims and checking the SPE.
Aims relaxation being called. out_location=/lustre/project/nmarom/fcurtis/gator/run_calcs/tmp/63d78218dd
Binary location is/home/fcurtis/fhi-aims.150205/bin/aims.150205.scalapack.mpi.x
SPE extracted
Structure passed SPE check
Replica 63d78218dd executing FHI-aims for a full unit cell relax
Aims relaxation being called. out_location=/lustre/project/nmarom/fcurtis/gator/run_calcs/tmp/63d78218dd
Binary location is/home/fcurtis/fhi-aims.150205/bin/aims.150205.scalapack.mpi.x
Relaxation failed!
SPE check not passed or full relaxation failure for 63d78218dd

Replica: a37e3c7bf7
Beginning iteration
No restart file found
--Structure selection--
--Crossover--
Attempting crossover: 1
cross_type:     [1, 3]
Random Frac: [0.469825495236561, 0.5292429134917964, 0.3215601323816623]
Parent A lattice vectors:  13.0117916638 10.1787553394 3.9784498818
Parent B lattice vectors:  8.97473747079 14.6182412384 3.95752806212
Child lattice vectors:  10.8586579329 12.2507014267 3.96353830616
Child angles:    90.2881491632 87.6458560351 84.7047285258
No volume check is called.
No lattice vector length check is called.
No center of mass distance check is called.
The new structure has passed the interatomic distance check.
The new structure has passed through all the cell check being called.
Crossover: 1 successful
post crossover geo: 
lattice_vector 10.8484298129 0.448172341944 -0.145479378049
lattice_vector 0.630409900763 12.2307852663 0.300267505873
lattice_vector 0.221308251655 -0.128474886581 3.95526898777
atom -4.55430 -1.75323 1.55069 S
atom -1.92834 -1.60997 2.61097 C
atom -3.00133 -4.10193 2.17307 C
atom -1.57586 -3.31464 2.88360 S
atom -4.16456 -3.47121 1.64342 C
atom -3.03932 -1.00136 2.08332 C
atom -3.05478 0.40809 1.93828 C
atom -0.84652 -0.81841 3.08026 C
atom -3.06467 1.56887 1.80770 N
atom 0.05192 -0.23083 3.54185 N
atom -5.03902 -4.44754 1.17998 C
atom -6.28117 -4.24453 0.55248 C
atom -7.29973 -4.07853 -0.00012 N
atom -2.96068 -5.41899 2.13786 N
atom -4.34896 -6.03382 1.45248 S
atom 4.54269 3.39874 2.65567 S
atom 1.91367 3.51729 1.59998 C
atom 3.02354 1.03591 2.00481 C
atom 1.58663 1.81118 1.30441 S
atom 4.17775 1.67664 2.54211 C
atom 3.01592 4.13520 2.13507 C
atom 3.01121 5.54255 2.29885 C
atom 0.82023 4.29897 1.14129 C
atom 3.00723 6.70134 2.44646 N
atom -0.08596 4.88001 0.68671 N
atom 5.06636 0.70715 2.99314 C
atom 6.30579 0.91960 3.62300 C
atom 7.32111 1.09072 4.17990 N
atom 3.00190 -0.28190 2.02348 N
atom 4.39923 -0.88539 2.70019 S

--Mutation--
No mutation applied.
--Cell Checks--
Cell checked! Reasonable angles observed!
No volume check is called.
No lattice vector length check is called.
No center of mass distance check is called.
The new structure has passed the interatomic distance check.
The new structure has passed through all the cell check being called.
pre relax geo: 
lattice_vector 10.8586579329 -2.34187669257e-17 -2.77555756156e-17
lattice_vector 1.13059777592 12.1984193286 0.0
lattice_vector 0.162806313899 -0.035108117516 3.96003755394
atom 7.34611 10.67368 1.52856 S
atom 9.96131 10.73675 2.62270 C
atom 8.79234 8.28029 2.23249 C
atom 10.23944 9.02670 2.94341 S
atom 7.66334 8.94417 1.67032 C
atom 8.88356 11.37646 2.06384 C
atom 8.92823 12.78114 1.88300 C
atom 11.06848 11.49525 3.08742 C
atom 8.96800 13.93759 1.72298 N
atom 11.98415 12.05732 3.54693 N
atom 6.75561 7.99279 1.21912 C
atom 5.53141 8.23016 0.56881 C
atom 4.52807 8.42335 -0.00247 N
atom 8.77907 6.96220 2.23119 N
atom 7.37589 6.38717 1.54158 S
atom 4.64311 3.27755 2.63424 S
atom 2.03560 3.47623 1.53802 C
atom 3.03659 0.96282 2.02146 C
atom 1.64242 1.77787 1.28099 S
atom 4.20896 1.56947 2.55900 C
atom 3.15515 4.06216 2.07319 C
atom 3.20634 5.47229 2.20125 C
atom 0.98160 4.28988 1.04396 C
atom 3.24821 6.63370 2.31944 N
atom 0.10634 4.89557 0.56178 N
atom 5.05067 0.57642 3.04720 C
atom 6.28926 0.75419 3.68932 C
atom 7.30323 0.89796 4.25634 N
atom 2.96032 -0.35208 2.07312 N
atom 4.32237 -0.99453 2.78500 S

--SPE Check and Full Relaxation--
Replica a37e3c7bf7 executing FHI-aims and checking the SPE.
Aims relaxation being called. out_location=/lustre/project/nmarom/fcurtis/gator/run_calcs/tmp/a37e3c7bf7
Binary location is/home/fcurtis/fhi-aims.150205/bin/aims.150205.scalapack.mpi.x
SPE extracted
Structure passed SPE check
Replica a37e3c7bf7 executing FHI-aims for a full unit cell relax
Aims relaxation being called. out_location=/lustre/project/nmarom/fcurtis/gator/run_calcs/tmp/a37e3c7bf7
Binary location is/home/fcurtis/fhi-aims.150205/bin/aims.150205.scalapack.mpi.x
post relax geo: 
lattice_vector 11.20708989 -0.03681529 0.20855477
lattice_vector 1.28080544 12.09355271 -0.15303458
lattice_vector 0.22066129 -0.08607499 4.10665484
atom 8.54405 10.23060 1.59832 S
atom 11.02829 9.72888 2.86476 C
atom 9.27125 7.61905 2.59592 C
atom 10.88317 8.00621 3.23460 S
atom 8.37312 8.50720 1.92965 C
atom 10.15802 10.58298 2.23854 C
atom 10.50971 11.94572 2.06312 C
atom 12.24696 10.23640 3.38881 C
atom 10.80099 13.06794 1.91140 N
atom 13.22407 10.62922 3.89546 N
atom 7.23441 7.81469 1.53908 C
atom 6.13516 8.32532 0.82610 C
atom 5.25275 8.77087 0.19968 N
atom 8.87844 6.36691 2.73381 N
atom 7.37984 6.14992 2.04339 S
atom 4.32568 3.66143 2.61068 S
atom 1.76180 3.96379 1.42751 C
atom 2.68353 1.41724 1.88731 C
atom 1.33135 2.28065 1.12560 S
atom 3.84495 1.96793 2.50067 C
atom 2.87723 4.49885 2.02222 C
atom 2.98595 5.90182 2.19880 C
atom 0.75382 4.82772 0.92466 C
atom 3.08741 7.05644 2.36531 N
atom -0.07787 5.49254 0.44354 N
atom 4.62774 0.93867 3.01041 C
atom 5.83915 1.02757 3.71938 C
atom 6.83086 1.04625 4.34080 N
atom 2.56378 0.10589 1.89949 N
atom 3.85472 -0.59159 2.67176 S

FHI-aims relaxation wall time (s):   1245.506
Ensuring cell is lower triangular...
post second check geo: 
lattice_vector 11.2090906973 6.93889390391e-18 2.77555756156e-17
lattice_vector 1.23800924898 12.0989765024 -2.77555756156e-17
lattice_vector 0.297312452331 -0.145042352306 4.10015637573
atom 8.53866 10.23658 1.58886 S
atom 11.04767 9.72531 2.80151 C
atom 9.29287 7.61338 2.53452 C
atom 10.91511 7.99693 3.14877 S
atom 8.37958 8.50794 1.89808 C
atom 10.16310 10.58533 2.20410 C
atom 10.50699 11.95172 2.04213 C
atom 12.27421 10.22948 3.31022 C
atom 10.79170 13.07706 1.90144 N
atom 13.25928 10.61836 3.80435 N
atom 7.23608 7.81714 1.51863 C
atom 6.12209 8.33418 0.83371 C
atom 5.22672 8.78566 0.23035 N
atom 8.90681 6.35798 2.66136 N
atom 7.39634 6.14573 1.99577 S
atom 4.36146 3.63841 2.58320 S
atom 1.77502 3.94883 1.45235 C
atom 2.71351 1.39916 1.85770 C
atom 1.34456 2.26874 1.13391 S
atom 3.88433 1.94499 2.45739 C
atom 2.89956 4.47914 2.03402 C
atom 3.00695 5.87977 2.22904 C
atom 0.75504 4.81641 0.98097 C
atom 3.10769 7.03220 2.41050 N
atom -0.08764 5.48519 0.52514 N
atom 4.67984 0.91121 2.93742 C
atom 5.90393 0.99409 3.62501 C
atom 6.90697 1.00725 4.22812 N
atom 2.59832 0.08735 1.85293 N
atom 3.90568 -0.61670 2.59084 S

--Comparison--
Comparison begins: comparing with 13 structures in the commmon pool
Comparison test finds the new structure to be acceptible! Energy unique from the other structures!
E_stuct: -93466.0967116  GM: -93473.4604755
Structure index: 06824b5dd8
old top energies:    [[-93473.46047554]
 [-93473.45024293]
 [-93473.3684607 ]
 [-93473.32260236]
 [-93473.26537317]
 [-93473.16116724]
 [-93473.15632061]
 [-93473.08444775]
 [-93473.01366212]
 [-93472.94809081]
 [-93472.53250746]
 [-93471.46143999]
 [-93470.79589083]]
new top energies:    [[-93473.46047554]
 [-93473.45024293]
 [-93473.3684607 ]
 [-93473.32260236]
 [-93473.26537317]
 [-93473.16116724]
 [-93473.15632061]
 [-93473.08444775]
 [-93473.01366212]
 [-93472.94809081]
 [-93472.53250746]
 [-93471.46143999]
 [-93470.79589083]
 [-93466.09671159]]
Top 100 energies have changed.
Convergence counter reset.
Convergence iteration:  0
Success!: 
  stoichiometry-- S:6_C:16_N:8
  cascade-- 0
  structure index-- 3358b3faf3
  replica child count-- 1
  collection count -- 14
  replica-- a37e3c7bf7
writing hierachy
a37e3c7bf7 finished iteration
Cumulative additions to common pool: 4
Avg addition per replica:            1.33333333333
Total size of common pool:           14
GA not converged yet.
GA Iteration time: -- 0:21:06.064820
Current Wallclock: -- 2015-07-21 01:03:40.418143

Replica: a37e3c7bf7
Beginning iteration
No restart file found
--Structure selection--
--Crossover--
Attempting crossover: 1
cross_type:     [3, 1]
Parent A lattice vectors:  5.96761715864 11.040738052 7.9200822439
Parent B lattice vectors:  12.0392345582 3.94736821317 11.8583646694
Child lattice vectors:  5.96761715864 11.040738052 7.9200822439
Child angles:    92.3873869613 85.3494368903 110.252769784
No volume check is called.
No lattice vector length check is called.
No center of mass distance check is called.
The new structure has stoms from different molecules sitting too close to each other.
Restarting iteration.

Attempting crossover: 2
cross_type:     [4, 3]
Random Frac: [0.6884172666791608, 0.585728429437224, 0.4706712522514024]
Parent A lattice vectors:  5.96761715864 11.040738052 7.9200822439
Parent B lattice vectors:  12.0392345582 3.94736821317 11.8583646694
Child lattice vectors:  7.84966752168 8.05748278292 9.96612937267
Child angles:    88.908455201 92.2757185085 104.690531553
No volume check is called.
No lattice vector length check is called.
No center of mass distance check is called.
The new structure has stoms from different molecules sitting too close to each other.
Restarting iteration.

Attempting crossover: 3
cross_type:     [2, 1]
Parent A lattice vectors:  5.96761715864 11.040738052 7.9200822439
Parent B lattice vectors:  12.0392345582 3.94736821317 11.8583646694
Child lattice vectors:  5.96761715864 11.040738052 7.9200822439
Child angles:    92.3873869613 85.3494368903 110.252769784
No volume check is called.
No lattice vector length check is called.
No center of mass distance check is called.
The new structure has passed the interatomic distance check.
The new structure has passed through all the cell check being called.
Crossover: 3 successful
post crossover geo: 
lattice_vector 5.92804404 -0.63661291 -0.25587578
lattice_vector -2.67141945 10.69357689 0.63939671
lattice_vector 0.92285024 -0.57914506 7.84478433
atom -4.80238 0.27352 10.53383 S
atom -2.59868 1.43186 11.91295 C
atom -2.63174 1.54176 9.14458 C
atom -1.59993 1.92751 10.54191 S
atom -3.91757 0.93043 9.15552 C
atom -3.80982 0.78892 11.90396 C
atom -4.44175 0.41919 13.11843 C
atom -1.98929 1.77845 13.14797 C
atom -5.02790 0.05088 14.06126 N
atom -1.44467 2.09632 14.13403 N
atom -4.41397 0.86349 7.85812 C
atom -5.63339 0.29985 7.43961 C
atom -6.62899 -0.19897 7.08756 N
atom -2.15280 1.90695 7.97390 N
atom -3.22738 1.54027 6.75729 S
atom 4.78694 -1.83777 0.48984 S
atom 2.60626 -0.64786 -0.89898 C
atom 2.64246 -0.51490 1.86847 C
atom 1.61805 -0.12061 0.46805 S
atom 3.91592 -1.15152 1.86258 C
atom 3.80445 -1.31447 -0.88453 C
atom 4.42858 -1.70727 -2.09585 C
atom 2.00334 -0.30042 -2.13688 C
atom 5.00586 -2.09559 -3.03611 N
atom 1.46354 0.01535 -3.12628 N
atom 4.41129 -1.21725 3.16049 C
atom 5.61939 -1.80154 3.58357 C
atom 6.60438 -2.31818 3.93978 N
atom 2.17113 -0.13045 3.03610 N
atom 3.23865 -0.50795 4.25563 S

--Mutation--
No mutation applied.
--Cell Checks--
Cell checked! Reasonable angles observed!
No volume check is called.
No lattice vector length check is called.
No center of mass distance check is called.
The new structure has stoms from different molecules sitting too close to each other.
Restarting iteration.


Replica: a37e3c7bf7
Beginning iteration
No restart file found
--Structure selection--
--Crossover--
Attempting crossover: 1
cross_type:     [4, 2]
Parent A lattice vectors:  9.67475977743 13.1482463464 3.87243787198
Parent B lattice vectors:  9.82308066691 12.8162269434 3.89427132913
Child lattice vectors:  9.82308066691 12.8162269434 3.89427132913
Child angles:    93.314566035 86.6730652842 88.3095942156
No volume check is called.
No lattice vector length check is called.
No center of mass distance check is called.
The new structure has stoms from different molecules sitting too close to each other.
Restarting iteration.

Attempting crossover: 2
cross_type:     [2, 3]
Random Frac: [0.3864139965437116, 0.7026741900096418, 0.7409930985730786]
Parent A lattice vectors:  9.67475977743 13.1482463464 3.87243787198
Parent B lattice vectors:  9.82308066691 12.8162269434 3.89427132913
Child lattice vectors:  9.76570507513 13.0486480886 3.8755417329
Child angles:    95.2137924328 84.1043538259 89.042491344
No volume check is called.
No lattice vector length check is called.
No center of mass distance check is called.
The new structure has passed the interatomic distance check.
The new structure has passed through all the cell check being called.
Crossover: 2 successful
post crossover geo: 
lattice_vector 9.76566641866 0.0211330510255 0.0175615539721
lattice_vector 0.189584396536 13.0465989969 0.132398299513
lattice_vector 0.392047403674 -0.39685156878 3.83518335794
atom -2.94897 -4.79031 1.98531 S
atom -4.30467 -2.48622 2.91753 C
atom -1.60479 -2.30136 2.47498 C
atom -2.90562 -1.50982 3.39184 S
atom -1.64597 -3.60280 1.89988 C
atom -4.32122 -3.73495 2.34646 C
atom -5.58630 -4.28547 2.00688 C
atom -5.52583 -1.83771 3.22450 C
atom -6.64579 -4.68578 1.71483 N
atom -6.51810 -1.29513 3.52447 N
atom -0.42226 -3.86898 1.28873 C
atom -0.05671 -5.01041 0.54870 C
atom 0.23412 -5.92597 -0.11711 N
atom -0.49028 -1.60975 2.33654 N
atom 0.65265 -2.51116 1.52258 S
atom 2.60251 4.72723 1.68915 S
atom 4.69100 2.95141 1.00038 C
atom 2.28748 1.88469 1.78633 C
atom 4.02500 1.49922 1.76460 S
atom 1.72683 3.19360 1.76119 C
atom 4.13361 4.20354 0.96939 C
atom 4.80907 5.25691 0.30179 C
atom 5.92640 2.69405 0.35410 C
atom 5.32757 6.13214 -0.27238 N
atom 6.93349 2.42417 -0.17554 N
atom 0.34097 3.10359 1.86069 C
atom -0.61975 4.13300 1.83954 C
atom -1.44106 4.96400 1.81109 N
atom 1.45495 0.86830 1.88566 N
atom -0.10832 1.41997 2.01371 S

--Mutation--
No mutation applied.
--Cell Checks--
Cell checked! Reasonable angles observed!
No volume check is called.
No lattice vector length check is called.
No center of mass distance check is called.
The new structure has passed the interatomic distance check.
The new structure has passed through all the cell check being called.
pre relax geo: 
lattice_vector 9.76570507513 -1.65340831304e-18 0.0
lattice_vector 0.218054663802 13.0468260164 0.0
lattice_vector 0.398083828024 -0.358881883088 3.83830128876
atom 7.02800 8.28329 2.03893 S
atom 5.67897 10.59965 2.95019 C
atom 8.37844 10.77414 2.50099 C
atom 7.08098 11.57775 3.41211 S
atom 8.33342 9.46704 1.93917 C
atom 5.65869 9.34525 2.39182 C
atom 4.39181 8.79408 2.06007 C
atom 4.45977 11.25390 3.25275 C
atom 3.33094 8.39315 1.77397 N
atom 3.46922 11.80165 3.54897 N
atom 9.55545 9.19202 1.32857 C
atom 9.91720 8.04236 0.59949 C
atom 10.20484 7.11948 -0.05754 N
atom 9.49420 11.46187 2.35358 N
atom 10.63371 10.54978 1.54675 S
atom 2.61577 4.73839 1.63659 S
atom 4.69917 2.95114 0.96212 C
atom 2.29476 1.89767 1.76309 C
atom 4.03141 1.50821 1.74219 S
atom 1.73690 3.20748 1.72570 C
atom 4.14444 4.20410 0.91945 C
[...]
atom -1.18412 -5.55836 2.74262 C
atom 0.09062 -5.24360 3.24323 C
atom 1.11347 -4.95969 3.73102 N
atom -3.34262 -6.68395 2.21948 N
atom -1.87218 -7.16091 2.84112 S

--Mutation--
No mutation applied.
--Cell Checks--
Cell checked! Reasonable angles observed!
No volume check is called.
No lattice vector length check is called.
No center of mass distance check is called.
The new structure has passed the interatomic distance check.
The new structure has passed through all the cell check being called.
pre relax geo: 
lattice_vector 9.66432335355 -1.12757025938e-17 2.77555756156e-17
lattice_vector -0.318955490445 11.1351423538 0.0
lattice_vector 0.305880289891 0.182230831264 4.87528832385
atom 1.86921 4.84816 2.22342 S
atom 4.60545 4.55706 2.92240 C
atom 3.01727 2.31359 2.91748 C
atom 4.61132 2.87277 3.47007 S
atom 1.95081 3.09928 2.39575 C
atom 3.56898 5.30568 2.42106 C
atom 3.76217 6.64225 1.98655 C
atom 5.88134 5.17205 3.04606 C
atom 3.80951 7.74090 1.58591 N
atom 6.92733 5.67672 3.17093 N
atom 0.88270 2.27544 2.06310 C
atom -0.33045 2.66810 1.47327 C
atom -1.31054 3.02693 0.94836 N
atom 2.80504 1.01352 3.01516 N
atom 1.27390 0.62771 2.48005 S
atom 7.59403 8.14628 1.89922 S
atom 4.88066 8.07264 1.04059 C
atom 6.01490 5.74029 1.93635 C
atom 4.48908 6.36655 1.28083 S
atom 7.22255 6.44986 2.20521 C
atom 6.04632 8.75560 1.28989 C
atom 6.14030 10.14039 0.99808 C
atom 3.78273 8.79511 0.49792 C
atom 6.27072 11.27622 0.75180 N
atom 2.88316 9.37481 0.02904 N
atom 8.16124 5.57678 2.74262 C
atom 9.43599 5.89154 3.24323 C
atom 10.45884 6.17545 3.73102 N
atom 6.00275 4.45119 2.21948 N
atom 7.47319 3.97424 2.84112 S

--SPE Check and Full Relaxation--
Replica a37e3c7bf7 executing FHI-aims and checking the SPE.
Aims relaxation being called. out_location=/lustre/project/nmarom/fcurtis/gator/run_calcs/tmp/a37e3c7bf7
Binary location is/home/fcurtis/fhi-aims.150205/bin/aims.150205.scalapack.mpi.x
SPE extracted
Structure passed SPE check
Replica a37e3c7bf7 executing FHI-aims for a full unit cell relax
Aims relaxation being called. out_location=/lustre/project/nmarom/fcurtis/gator/run_calcs/tmp/a37e3c7bf7
Binary location is/home/fcurtis/fhi-aims.150205/bin/aims.150205.scalapack.mpi.x
post relax geo: 
lattice_vector 9.35080024 0.01609551 -0.91996685
lattice_vector -0.94488271 10.99547007 0.05131792
lattice_vector -1.03489438 0.21435719 5.41210511
atom 0.37051 3.50854 2.99564 S
atom 3.03747 4.19626 2.80734 C
atom 2.26931 1.79979 1.87412 C
atom 3.49921 2.47573 2.96630 S
atom 0.94358 2.31081 1.83877 C
atom 1.75426 4.64347 2.87918 C
atom 1.40402 6.01650 2.84353 C
atom 4.17863 5.08112 2.51659 C
atom 1.08979 7.14388 2.87548 N
atom 5.14324 5.51606 3.62016 N
atom 0.21085 1.68542 0.83888 C
atom -1.09635 2.00156 0.43081 C
atom -2.16894 2.34539 0.11973 N
atom 2.56738 0.82707 1.02938 N
atom 1.22790 0.46729 0.10429 S
atom 5.68264 8.33137 3.42707 S
atom 4.52601 8.93277 0.90050 C
atom 4.55105 6.28363 1.65878 C
atom 3.75587 7.39094 0.51330 S
atom 5.53272 6.68476 2.77193 C
atom 5.28401 9.29378 1.98955 C
atom 5.87459 10.57883 2.07936 C
atom 4.30505 9.85129 -0.16156 C
atom 6.42913 11.59692 2.23954 N
atom 4.10582 10.52864 -1.09339 N
atom 6.49549 5.53840 2.92872 C
atom 7.64178 5.60266 3.78110 C
atom 8.60268 5.63610 4.44042 N
atom 4.89079 4.92932 1.23708 N
atom 6.57441 4.50448 1.44675 S

FHI-aims relaxation wall time (s):   3282.941
Ensuring cell is lower triangular...
post second check geo: 
lattice_vector 9.39595994026 4.33680868994e-19 -1.11022302463e-16
lattice_vector -0.926530403869 10.9971514646 -6.93889390391e-18
lattice_vector -1.55945723605 0.197111526069 5.28555363983
atom 0.08144 3.49701 3.03072 S
atom 2.75519 4.17986 3.10703 C
atom 2.07799 1.78835 2.09406 C
atom 3.19620 2.45782 3.30394 S
atom 0.76297 2.30225 1.93101 C
atom 1.47188 4.62948 3.05457 C
atom 1.12916 6.00334 2.98999 C
atom 3.92085 5.06340 2.93273 C
atom 0.81525 7.13126 2.99526 N
atom 4.77352 5.49238 4.12707 N
atom 0.13059 1.68196 0.86184 C
atom -1.12983 2.00227 0.32895 C
atom -2.16622 2.34944 -0.08436 N
atom 2.45567 0.81805 1.27890 N
atom 1.21258 0.46437 0.22577 S
atom 5.33405 8.30724 3.99833 S
atom 4.43139 8.92008 1.37295 C
atom 4.37752 6.26820 2.12004 C
atom 3.70022 7.38125 0.90640 S
atom 5.24617 6.66330 3.32546 C
atom 5.07973 9.27562 2.53233 C
atom 5.66088 10.55911 2.68436 C
atom 4.31705 9.84286 0.29783 C
atom 6.19882 11.57547 2.90190 N
atom 4.21118 10.52396 -0.64648 N
atom 6.18701 5.51439 3.57144 C
atom 7.24444 5.57322 4.53218 C
atom 8.13622 5.60231 5.28253 N
atom 4.75460 4.91471 1.72853 N
atom 6.40887 4.48563 2.10042 S

--Comparison--
Comparison begins: comparing with 30 structures in the commmon pool
Comparison test finds the new structure to be acceptible! Energy unique from the other structures!
E_stuct: -93405.9576272  GM: -93473.4604755
Structure index: ffef2e5528
old top energies:    [[-93473.46047554]
 [-93473.45024293]
 [-93473.3684607 ]
 [-93473.34389479]
 [-93473.32260236]
 [-93473.26537317]
 [-93473.16723491]
 [-93473.16116724]
 [-93473.15632061]
 [-93473.08444775]
 [-93473.01366212]
 [-93472.94809081]
 [-93472.69763891]
 [-93472.53250746]
 [-93471.46143999]
 [-93471.3079643 ]
 [-93470.79589083]
 [-93466.79536092]
 [-93466.09671159]
 [-93460.12321384]
 [-93458.77611463]
 [-93450.81766835]
 [-93447.54288829]
 [-93445.46450279]
 [-93438.43165764]
 [-93432.98459056]
 [-93399.23730667]
 [-93292.81882841]
 [-93211.68837662]
 [-92838.26909583]]
new top energies:    [[-93473.46047554]
 [-93473.45024293]
 [-93473.3684607 ]
 [-93473.34389479]
 [-93473.32260236]
 [-93473.26537317]
 [-93473.16723491]
 [-93473.16116724]
 [-93473.15632061]
 [-93473.08444775]
 [-93473.01366212]
 [-93472.94809081]
 [-93472.69763891]
 [-93472.53250746]
 [-93471.46143999]
 [-93471.3079643 ]
 [-93470.79589083]
 [-93466.79536092]
 [-93466.09671159]
 [-93460.12321384]
 [-93458.77611463]
 [-93450.81766835]
 [-93447.54288829]
 [-93445.46450279]
 [-93438.43165764]
 [-93432.98459056]
 [-93405.9576272 ]
 [-93399.23730667]
 [-93292.81882841]
 [-93211.68837662]
 [-92838.26909583]]
Top 100 energies have changed.
Convergence counter reset.
Convergence iteration:  0
Success!: 
  stoichiometry-- S:6_C:16_N:8
  cascade-- 0
  structure index-- 5fd455a1d5
  replica child count-- 8
  collection count -- 31
  replica-- a37e3c7bf7
writing hierachy
a37e3c7bf7 finished iteration
Cumulative additions to common pool: 21
Avg addition per replica:            7.0
Total size of common pool:           31
GA not converged yet.
GA Iteration time: -- 0:55:04.450875
Current Wallclock: -- 2015-07-21 11:23:20.147969

Replica: 1cfdd11649
Beginning iteration
No restart file found
--Structure selection--
--Crossover--
Attempting crossover: 1
cross_type:     [1, 2]
Parent A lattice vectors:  8.42514977246 3.88214882584 15.5347461734
Parent B lattice vectors:  9.67475977743 13.1482463464 3.87243787198
Child lattice vectors:  9.67475977743 13.1482463464 3.87243787198
Child angles:    95.8685879193 83.0966362602 89.1936757017
No volume check is called.
No lattice vector length check is called.
No center of mass distance check is called.
The new structure has stoms from different molecules sitting too close to each other.
Restarting iteration.

Attempting crossover: 2
cross_type:     [3, 3]
Random Frac: [0.7375579011642879, 0.3482548108776485, 0.6447849349303556]
Parent A lattice vectors:  8.42514977246 3.88214882584 15.5347461734
Parent B lattice vectors:  9.67475977743 13.1482463464 3.87243787198
Child lattice vectors:  8.75084082714 9.91445737126 11.3656772239
Child angles:    88.2744338417 89.1771848871 90.3292011753
No volume check is called.
No lattice vector length check is called.
No center of mass distance check is called.
The new structure has passed the interatomic distance check.
The new structure has passed through all the cell check being called.
Crossover: 2 successful
post crossover geo: 
lattice_vector 8.74618109573 -0.240167907632 0.154437038477
lattice_vector 0.213809227306 9.91184685891 0.0777330456673
lattice_vector -0.0303670042113 0.253879334302 11.3628007941
atom -0.92684 -0.63777 7.97539 S
atom -3.73724 -0.69874 7.74438 C
atom -2.23951 -0.68370 5.45973 C
atom -3.79812 -1.28184 6.07147 S
atom -1.08529 -0.39810 6.23995 C
atom -2.61716 -0.39490 8.47665 C
atom -2.69813 0.16201 9.77724 C
atom -5.01838 -0.55696 8.34141 C
atom -2.66898 0.64812 10.84198 N
atom -6.07196 -0.48164 8.83951 N
atom -0.05921 0.04954 5.41587 C
atom 1.20122 0.52996 5.81281 C
atom 2.21308 0.98841 6.17415 N
atom -2.14894 -0.49322 4.15579 N
atom -0.61394 0.02041 3.75916 S
atom -2.44353 -1.87721 1.88903 S
atom -0.37319 -3.50204 0.92605 C
atom -2.78595 -4.64924 1.37309 C
atom -1.05472 -5.00030 1.59330 S
atom -3.34820 -3.35040 1.51530 C
atom -0.92188 -2.25409 1.05192 C
atom -0.30474 -1.12370 0.46072 C
atom 0.81284 -3.72580 0.18631 C
atom 0.15197 -0.17209 -0.03890 N
atom 1.77199 -3.99187 -0.42802 N
atom -4.72583 -3.41310 1.32012 C
atom -5.68808 -2.39055 1.42629 C
atom -6.51761 -1.57387 1.53057 N
atom -3.60492 -5.64067 1.07840 N
atom -5.16025 -5.07228 0.98771 S

--Mutation--
No mutation applied.
--Cell Checks--
Cell checked! Reasonable angles observed!
No volume check is called.
No lattice vector length check is called.
No center of mass distance check is called.
The new structure has passed the interatomic distance check.
The new structure has passed through all the cell check being called.
pre relax geo: 
lattice_vector 8.75084082714 2.34187669257e-17 0.0
lattice_vector -0.0569646331589 9.91429372154 0.0
lattice_vector 0.163214980706 0.343189643825 11.3593221847
atom 7.92578 9.31481 7.99520 S
atom 5.11448 9.17528 7.81489 C
atom 6.57067 9.21308 5.50380 C
atom 5.04011 8.57747 6.14772 S
atom 7.73022 9.53628 6.26113 C
atom 6.23855 9.51540 8.52475 C
atom 6.16529 10.08020 9.82239 C
atom 3.84066 9.28677 8.43362 C
atom 6.19987 10.57537 10.88279 N
atom 2.79437 9.33723 8.94988 N
atom 8.72892 10.00521 5.41554 C
atom 9.98250 10.52300 5.78632 C
atom 10.98762 11.01177 6.12610 N
atom 6.63296 9.39559 4.19706 N
atom 8.14604 9.94779 3.76927 S
atom 6.33651 7.98612 1.94631 S
atom 8.43334 6.41083 0.95865 C
atom 6.06124 5.20176 1.45725 C
atom 7.80507 4.89987 1.64912 S
atom 5.46616 6.48585 1.59979 C
atom 7.85291 7.64429 1.08499 C
atom 8.42827 8.78639 0.47445 C
atom 9.61183 6.21368 0.19954 C
atom 8.84980 9.74612 -0.04033 N
atom 10.56692 5.96903 -0.42982 N
atom 4.08753 6.38400 1.42972 C
atom 3.09960 7.38071 1.54543 C
atom 2.24994 8.17523 1.65841 N
atom 5.26472 4.18602 1.18463 N
atom 3.69301 4.71099 1.11750 S

--SPE Check and Full Relaxation--
Replica 1cfdd11649 executing FHI-aims and checking the SPE.
Aims relaxation being called. out_location=/lustre/project/nmarom/fcurtis/gator/run_calcs/tmp/1cfdd11649
Binary location is/home/fcurtis/fhi-aims.150205/bin/aims.150205.scalapack.mpi.x
SPE extracted
Structure passed SPE check
Replica 1cfdd11649 executing FHI-aims for a full unit cell relax
Aims relaxation being called. out_location=/lustre/project/nmarom/fcurtis/gator/run_calcs/tmp/1cfdd11649
Binary location is/home/fcurtis/fhi-aims.150205/bin/aims.150205.scalapack.mpi.x
Relaxation failed!
SPE check not passed or full relaxation failure for 1cfdd11649

Replica: bb36a886c4
Beginning iteration
No restart file found
--Structure selection--
--Crossover--
Attempting crossover: 1
cross_type:     [3, 3]
Random Frac: [0.7154742431917147, 0.3871785349281365, 0.45660244412020984]
Parent A lattice vectors:  8.29697003412 4.75843417404 16.9759318561
Parent B lattice vectors:  8.17797809694 9.81440091774 6.50073257787
Child lattice vectors:  8.26311376314 7.85681332963 11.1441238224
Child angles:    84.0453027289 78.5773272634 80.9695494701
No volume check is called.
No lattice vector length check is called.
No center of mass distance check is called.
The new structure has stoms from different molecules sitting too close to each other.
Restarting iteration.

Attempting crossover: 2
cross_type:     [3, 3]
Random Frac: [0.572979456149829, 0.5409585155741572, 0.7182404583266697]
Parent A lattice vectors:  8.29697003412 4.75843417404 16.9759318561
Parent B lattice vectors:  8.17797809694 9.81440091774 6.50073257787
Child lattice vectors:  8.24615803239 7.07930269579 13.9330965128
Child angles:    81.552968758 75.7437826301 81.0142901861
No volume check is called.
No lattice vector length check is called.
No center of mass distance check is called.
The new structure has passed the interatomic distance check.
The new structure has passed through all the cell check being called.
Crossover: 2 successful
post crossover geo: 
lattice_vector 8.24615803239 -6.89369592085e-17 -6.36134984855e-17
lattice_vector 1.10570297925 6.99242072392 -2.54819212634e-17
lattice_vector 3.43114297794 1.52957068996 13.4171103373
atom 4.05902 0.49278 9.73103 S
atom 1.33422 -0.09914 9.29561 C
atom 3.09254 -0.43521 7.23478 C
atom 1.63188 -1.17786 7.91366 S
atom 4.06795 0.29741 7.97609 C
atom 2.29175 0.59171 9.98684 C
atom 1.92751 1.50543 11.00621 C
atom -0.04006 -0.01806 9.63361 C
atom 1.67121 2.30702 11.81776 N
atom -1.18715 -0.01356 9.85538 N
atom 5.05341 0.75906 7.10774 C
atom 6.17601 1.58322 7.32004 C
atom 7.10641 2.28907 7.39481 N
atom 3.28881 -0.57567 5.93395 N
atom 4.71205 0.17224 5.49824 S
atom 1.63661 3.79703 0.63872 S
atom 4.35212 4.61522 0.74293 C
atom 3.81150 1.90772 0.71156 C
atom 5.18010 3.05166 0.66816 S
atom 2.42347 2.21993 0.70554 C
atom 3.00774 4.90140 0.73661 C
atom 2.55847 6.24542 0.79743 C
atom 5.30646 5.66562 0.81665 C
atom 2.13888 7.33686 0.83474 N
atom 6.14077 6.48667 0.85969 N
atom 1.67773 1.04922 0.75829 C
atom 0.27686 0.94796 0.75656 C
atom -0.89012 0.89224 0.75284 N
atom 4.12789 0.62954 0.75983 N
atom 2.76414 -0.31187 0.80249 S

--Mutation--
No mutation applied.
--Cell Checks--
Cell checked! Reasonable angles observed!
No volume check is called.
No lattice vector length check is called.
No center of mass distance check is called.
The new structure has passed the interatomic distance check.
The new structure has passed through all the cell check being called.
pre relax geo: 
lattice_vector 8.24615803239 -6.89369592085e-17 -6.36134984855e-17
lattice_vector 1.10570297925 6.99242072392 -2.54819212634e-17
lattice_vector 3.43114297794 1.52957068996 13.4171103373
atom 5.16472 7.48520 9.73103 S
atom 2.43992 6.89328 9.29561 C
atom 4.19824 6.55721 7.23478 C
atom 2.73758 5.81456 7.91366 S
atom 5.17366 7.28983 7.97609 C
atom 3.39745 7.58413 9.98684 C
atom 3.03322 8.49785 11.00621 C
atom 1.06564 6.97437 9.63361 C
atom 2.77691 9.29945 11.81776 N
atom -0.08145 6.97886 9.85538 N
atom 6.15911 7.75148 7.10774 C
atom 7.28171 8.57564 7.32004 C
atom 8.21211 9.28149 7.39481 N
atom 4.39452 6.41675 5.93395 N
atom 5.81775 7.16466 5.49824 S
atom 1.63661 3.79703 0.63872 S
atom 4.35212 4.61522 0.74293 C
atom 3.81150 1.90772 0.71156 C
atom 5.18010 3.05166 0.66816 S
atom 2.42347 2.21993 0.70554 C
atom 3.00774 4.90140 0.73661 C
atom 2.55847 6.24542 0.79743 C
atom 5.30646 5.66562 0.81665 C
atom 2.13888 7.33686 0.83474 N
atom 6.14077 6.48667 0.85969 N
atom 1.67773 1.04922 0.75829 C
atom 0.27686 0.94796 0.75656 C
atom -0.89012 0.89224 0.75284 N
atom 4.12789 0.62954 0.75983 N
atom 2.76414 -0.31187 0.80249 S

--SPE Check and Full Relaxation--
Replica bb36a886c4 executing FHI-aims and checking the SPE.
Aims relaxation being called. out_location=/lustre/project/nmarom/fcurtis/gator/run_calcs/tmp/bb36a886c4
Binary location is/home/fcurtis/fhi-aims.150205/bin/aims.150205.scalapack.mpi.x
SPE extracted
Structure passed SPE check
Replica bb36a886c4 executing FHI-aims for a full unit cell relax
Aims relaxation being called. out_location=/lustre/project/nmarom/fcurtis/gator/run_calcs/tmp/bb36a886c4
Binary location is/home/fcurtis/fhi-aims.150205/bin/aims.150205.scalapack.mpi.x
post relax geo: 
lattice_vector 7.13492204 -0.3608355 0.95059446
lattice_vector 0.11744077 6.2106085 2.16037823
lattice_vector 3.80740283 3.33833732 12.81791744
atom 0.27321 9.75578 9.51559 S
atom -1.18467 7.55471 10.39298 C
atom 0.84967 7.15204 8.68181 C
atom -0.87355 6.72206 8.84984 S
atom 1.33359 8.45316 8.98764 C
atom -0.70742 8.81065 10.65965 C
atom -0.85317 9.37406 11.95130 C
atom -1.85942 6.81444 11.39323 C
atom -0.90785 9.79123 13.04253 N
atom -2.40896 6.22257 12.23832 N
atom 2.70768 8.50071 8.79615 C
atom 3.61095 9.57178 8.92826 C
atom 4.40212 10.43215 8.98816 N
atom 1.71967 6.25078 8.27544 N
atom 3.23226 6.92731 8.23370 S
atom 3.66550 2.70153 3.21809 S
atom 5.17621 3.86018 1.16545 C
atom 6.25759 2.02072 4.00175 C
atom 4.91354 2.57616 0.11162 S
atom 5.10731 1.58254 3.30953 C
atom 4.65733 3.99201 2.48562 C
atom 5.01518 5.04449 3.34805 C
atom 5.93612 4.96320 0.65511 C
atom 4.22486 5.91661 4.10700 N
atom 6.54301 5.86575 0.22277 N
atom 5.15034 0.49343 2.49802 C
atom 2.80337 -0.32252 2.26016 C
atom 1.68363 -0.36644 2.59463 N
atom 7.16658 2.38196 4.64655 N
atom 6.42548 -0.45278 1.67457 S

FHI-aims relaxation wall time (s):   5567.439
Ensuring cell is lower triangular...
post second check geo: 
lattice_vector 7.2070066326 0.0 -1.11022302463e-16
lattice_vector 0.0902685851385 6.57605778213 -4.4408920985e-16
lattice_vector 5.29284556026 7.35912368323 10.3811802971
atom 1.03712 12.33034 5.71693 S
atom -0.18024 10.53051 7.45432 C
atom 1.62821 9.59957 5.69602 C
atom -0.03409 9.24073 6.23511 S
atom 2.08249 10.93126 5.49389 C
atom 0.26453 11.80668 7.23107 C
atom 0.26239 12.76054 8.27854 C
atom -0.67925 10.15478 8.72461 C
atom 0.33130 13.51110 9.17281 N
atom -1.08220 9.86915 9.78410 N
atom 3.41520 10.91951 5.10556 C
atom 4.27323 11.97881 4.75599 C
atom 5.02131 12.81490 4.42269 N
atom 2.48103 8.61872 5.48403 N
atom 3.93911 9.25094 5.01322 S
atom 3.91804 3.62029 1.62256 S
atom 5.08489 4.05117 -0.88559 C
atom 6.62165 3.24395 2.21027 C
atom 4.75013 2.49221 -1.42022 S
atom 5.41352 2.59875 1.86612 C
atom 4.73873 4.60487 0.38053 C
atom 5.15405 5.88288 0.79737 C
atom 5.71466 4.93017 -1.82651 C
atom 4.42808 6.95171 1.33751 N
atom 6.21327 5.64453 -2.60812 N
atom 5.40360 1.30447 1.45223 C
atom 3.08959 0.44557 1.82404 C
atom 2.02737 0.50856 2.30915 N
atom 7.58852 3.79990 2.56889 N
atom 6.60476 0.14660 0.80728 S

--Comparison--
Comparison begins: comparing with 31 structures in the commmon pool
Comparison test finds the new structure to be acceptible! Minimum resi=499.657445
E_stuct: -93432.6676621  GM: -93473.4604755
Structure index: 58afa6e33f
old top energies:    [[-93473.46047554]
 [-93473.45024293]
 [-93473.3684607 ]
 [-93473.34389479]
 [-93473.32260236]
 [-93473.26537317]
 [-93473.16723491]
 [-93473.16116724]
 [-93473.15632061]
 [-93473.08444775]
 [-93473.01366212]
 [-93472.94809081]
 [-93472.69763891]
 [-93472.53250746]
 [-93471.46143999]
 [-93471.3079643 ]
 [-93470.79589083]
 [-93466.79536092]
 [-93466.09671159]
 [-93460.12321384]
 [-93458.77611463]
 [-93450.81766835]
 [-93447.54288829]
 [-93445.46450279]
 [-93438.43165764]
 [-93432.98459056]
 [-93405.9576272 ]
 [-93399.23730667]
 [-93292.81882841]
 [-93211.68837662]
 [-92838.26909583]]
new top energies:    [[-93473.46047554]
 [-93473.45024293]
 [-93473.3684607 ]
 [-93473.34389479]
 [-93473.32260236]
 [-93473.26537317]
 [-93473.16723491]
 [-93473.16116724]
 [-93473.15632061]
 [-93473.08444775]
 [-93473.01366212]
 [-93472.94809081]
 [-93472.69763891]
 [-93472.53250746]
 [-93471.46143999]
 [-93471.3079643 ]
 [-93470.79589083]
 [-93466.79536092]
 [-93466.09671159]
 [-93460.12321384]
 [-93458.77611463]
 [-93450.81766835]
 [-93447.54288829]
 [-93445.46450279]
 [-93438.43165764]
 [-93432.98459056]
 [-93432.66766209]
 [-93405.9576272 ]
 [-93399.23730667]
 [-93292.81882841]
 [-93211.68837662]
 [-92838.26909583]]
Top 100 energies have changed.
Convergence counter reset.
Convergence iteration:  0
Success!: 
  stoichiometry-- S:6_C:16_N:8
  cascade-- 0
  structure index-- 58afa6e33f
  replica child count-- 9
  collection count -- 32
  replica-- bb36a886c4
writing hierachy
bb36a886c4 finished iteration
Cumulative additions to common pool: 22
Avg addition per replica:            7.33333333333
Total size of common pool:           32
GA not converged yet.
GA Iteration time: -- 1:33:05.013994
Current Wallclock: -- 2015-07-21 12:23:40.614029

