  MPI-parallelism will be employed.
------------------------------------------------------------
          Invoking FHI-aims ...
          Version 170418
          Git rev. (modified): 37b044c BSE timing flags.
          Compiled on 2017/05/17 at 19:38:01 on host thetalogin5.

          When using FHI-aims, please cite the following reference:

          Volker Blum, Ralf Gehrke, Felix Hanke, Paula Havu,
          Ville Havu, Xinguo Ren, Karsten Reuter, and Matthias Scheffler,
          'Ab Initio Molecular Simulations with Numeric Atom-Centered Orbitals',
          Computer Physics Communications 180, 2175-2196 (2009)

          For any questions about FHI-aims, please visit the aimsclub website
          with its forums and wiki. Contributions to both the forums and the
          wiki are warmly encouraged - they are for you, and everyone is welcome there.

------------------------------------------------------------



  Date     :  20180104, Time     :  205147.873
  Time zero on CPU 1             :   0.104000000000000E+00  s.
  Internal wall clock time zero  :           284331107.873  s.

  FHI-aims created a unique identifier for this run for later identification
  aims_uuid : AA35F48A-376A-4CDF-ABB0-9C5030EDDE01

  Using      512 parallel tasks.
  Task        0 on host nid02312 reporting.
  Task        1 on host nid02312 reporting.
  Task        2 on host nid02312 reporting.
  Task        3 on host nid02312 reporting.
  Task        4 on host nid02312 reporting.
  Task        5 on host nid02312 reporting.
  Task        6 on host nid02312 reporting.
  Task        7 on host nid02312 reporting.
  Task        8 on host nid02312 reporting.
  Task        9 on host nid02312 reporting.
  Task       10 on host nid02312 reporting.
  Task       11 on host nid02312 reporting.
  Task       12 on host nid02312 reporting.
  Task       13 on host nid02312 reporting.
  Task       14 on host nid02312 reporting.
  Task       15 on host nid02312 reporting.
  Task       16 on host nid02312 reporting.
  Task       17 on host nid02312 reporting.
  Task       18 on host nid02312 reporting.
  Task       19 on host nid02312 reporting.
  Task       20 on host nid02312 reporting.
  Task       21 on host nid02312 reporting.
  Task       22 on host nid02312 reporting.
  Task       23 on host nid02312 reporting.
  Task       24 on host nid02312 reporting.
  Task       25 on host nid02312 reporting.
  Task       26 on host nid02312 reporting.
  Task       27 on host nid02312 reporting.
  Task       28 on host nid02312 reporting.
  Task       29 on host nid02312 reporting.
  Task       30 on host nid02312 reporting.
  Task       31 on host nid02312 reporting.
  Task       32 on host nid02312 reporting.
  Task       33 on host nid02312 reporting.
  Task       34 on host nid02312 reporting.
  Task       35 on host nid02312 reporting.
  Task       36 on host nid02312 reporting.
  Task       37 on host nid02312 reporting.
  Task       38 on host nid02312 reporting.
  Task       39 on host nid02312 reporting.
  Task       40 on host nid02312 reporting.
  Task       41 on host nid02312 reporting.
  Task       42 on host nid02312 reporting.
  Task       43 on host nid02312 reporting.
  Task       44 on host nid02312 reporting.
  Task       45 on host nid02312 reporting.
  Task       46 on host nid02312 reporting.
  Task       47 on host nid02312 reporting.
  Task       48 on host nid02312 reporting.
  Task       49 on host nid02312 reporting.
  Task       50 on host nid02312 reporting.
  Task       51 on host nid02312 reporting.
  Task       52 on host nid02312 reporting.
  Task       53 on host nid02312 reporting.
  Task       54 on host nid02312 reporting.
  Task       55 on host nid02312 reporting.
  Task       56 on host nid02312 reporting.
  Task       57 on host nid02312 reporting.
  Task       58 on host nid02312 reporting.
  Task       59 on host nid02312 reporting.
  Task       60 on host nid02312 reporting.
  Task       61 on host nid02312 reporting.
  Task       62 on host nid02312 reporting.
  Task       63 on host nid02312 reporting.
  Task       64 on host nid02313 reporting.
  Task       65 on host nid02313 reporting.
  Task       66 on host nid02313 reporting.
  Task       67 on host nid02313 reporting.
  Task       68 on host nid02313 reporting.
  Task       69 on host nid02313 reporting.
  Task       70 on host nid02313 reporting.
  Task       71 on host nid02313 reporting.
  Task       72 on host nid02313 reporting.
  Task       73 on host nid02313 reporting.
  Task       74 on host nid02313 reporting.
  Task       75 on host nid02313 reporting.
  Task       76 on host nid02313 reporting.
  Task       77 on host nid02313 reporting.
  Task       78 on host nid02313 reporting.
  Task       79 on host nid02313 reporting.
  Task       80 on host nid02313 reporting.
  Task       81 on host nid02313 reporting.
  Task       82 on host nid02313 reporting.
  Task       83 on host nid02313 reporting.
  Task       84 on host nid02313 reporting.
  Task       85 on host nid02313 reporting.
  Task       86 on host nid02313 reporting.
  Task       87 on host nid02313 reporting.
  Task       88 on host nid02313 reporting.
  Task       89 on host nid02313 reporting.
  Task       90 on host nid02313 reporting.
  Task       91 on host nid02313 reporting.
  Task       92 on host nid02313 reporting.
  Task       93 on host nid02313 reporting.
  Task       94 on host nid02313 reporting.
  Task       95 on host nid02313 reporting.
  Task       96 on host nid02313 reporting.
  Task       97 on host nid02313 reporting.
  Task       98 on host nid02313 reporting.
  Task       99 on host nid02313 reporting.
  Task      100 on host nid02313 reporting.
  Task      101 on host nid02313 reporting.
  Task      102 on host nid02313 reporting.
  Task      103 on host nid02313 reporting.
  Task      104 on host nid02313 reporting.
  Task      105 on host nid02313 reporting.
  Task      106 on host nid02313 reporting.
  Task      107 on host nid02313 reporting.
  Task      108 on host nid02313 reporting.
  Task      109 on host nid02313 reporting.
  Task      110 on host nid02313 reporting.
  Task      111 on host nid02313 reporting.
  Task      112 on host nid02313 reporting.
  Task      113 on host nid02313 reporting.
  Task      114 on host nid02313 reporting.
  Task      115 on host nid02313 reporting.
  Task      116 on host nid02313 reporting.
  Task      117 on host nid02313 reporting.
  Task      118 on host nid02313 reporting.
  Task      119 on host nid02313 reporting.
  Task      120 on host nid02313 reporting.
  Task      121 on host nid02313 reporting.
  Task      122 on host nid02313 reporting.
  Task      123 on host nid02313 reporting.
  Task      124 on host nid02313 reporting.
  Task      125 on host nid02313 reporting.
  Task      126 on host nid02313 reporting.
  Task      127 on host nid02313 reporting.
  Task      128 on host nid02314 reporting.
  Task      129 on host nid02314 reporting.
  Task      130 on host nid02314 reporting.
  Task      131 on host nid02314 reporting.
  Task      132 on host nid02314 reporting.
  Task      133 on host nid02314 reporting.
  Task      134 on host nid02314 reporting.
  Task      135 on host nid02314 reporting.
  Task      136 on host nid02314 reporting.
  Task      137 on host nid02314 reporting.
  Task      138 on host nid02314 reporting.
  Task      139 on host nid02314 reporting.
  Task      140 on host nid02314 reporting.
  Task      141 on host nid02314 reporting.
  Task      142 on host nid02314 reporting.
  Task      143 on host nid02314 reporting.
  Task      144 on host nid02314 reporting.
  Task      145 on host nid02314 reporting.
  Task      146 on host nid02314 reporting.
  Task      147 on host nid02314 reporting.
  Task      148 on host nid02314 reporting.
  Task      149 on host nid02314 reporting.
  Task      150 on host nid02314 reporting.
  Task      151 on host nid02314 reporting.
  Task      152 on host nid02314 reporting.
  Task      153 on host nid02314 reporting.
  Task      154 on host nid02314 reporting.
  Task      155 on host nid02314 reporting.
  Task      156 on host nid02314 reporting.
  Task      157 on host nid02314 reporting.
  Task      158 on host nid02314 reporting.
  Task      159 on host nid02314 reporting.
  Task      160 on host nid02314 reporting.
  Task      161 on host nid02314 reporting.
  Task      162 on host nid02314 reporting.
  Task      163 on host nid02314 reporting.
  Task      164 on host nid02314 reporting.
  Task      165 on host nid02314 reporting.
  Task      166 on host nid02314 reporting.
  Task      167 on host nid02314 reporting.
  Task      168 on host nid02314 reporting.
  Task      169 on host nid02314 reporting.
  Task      170 on host nid02314 reporting.
  Task      171 on host nid02314 reporting.
  Task      172 on host nid02314 reporting.
  Task      173 on host nid02314 reporting.
  Task      174 on host nid02314 reporting.
  Task      175 on host nid02314 reporting.
  Task      176 on host nid02314 reporting.
  Task      177 on host nid02314 reporting.
  Task      178 on host nid02314 reporting.
  Task      179 on host nid02314 reporting.
  Task      180 on host nid02314 reporting.
  Task      181 on host nid02314 reporting.
  Task      182 on host nid02314 reporting.
  Task      183 on host nid02314 reporting.
  Task      184 on host nid02314 reporting.
  Task      185 on host nid02314 reporting.
  Task      186 on host nid02314 reporting.
  Task      187 on host nid02314 reporting.
  Task      188 on host nid02314 reporting.
  Task      189 on host nid02314 reporting.
  Task      190 on host nid02314 reporting.
  Task      191 on host nid02314 reporting.
  Task      192 on host nid02315 reporting.
  Task      193 on host nid02315 reporting.
  Task      194 on host nid02315 reporting.
  Task      195 on host nid02315 reporting.
  Task      196 on host nid02315 reporting.
  Task      197 on host nid02315 reporting.
  Task      198 on host nid02315 reporting.
  Task      199 on host nid02315 reporting.
  Task      200 on host nid02315 reporting.
  Task      201 on host nid02315 reporting.
  Task      202 on host nid02315 reporting.
  Task      203 on host nid02315 reporting.
  Task      204 on host nid02315 reporting.
  Task      205 on host nid02315 reporting.
  Task      206 on host nid02315 reporting.
  Task      207 on host nid02315 reporting.
  Task      208 on host nid02315 reporting.
  Task      209 on host nid02315 reporting.
  Task      210 on host nid02315 reporting.
  Task      211 on host nid02315 reporting.
  Task      212 on host nid02315 reporting.
  Task      213 on host nid02315 reporting.
  Task      214 on host nid02315 reporting.
  Task      215 on host nid02315 reporting.
  Task      216 on host nid02315 reporting.
  Task      217 on host nid02315 reporting.
  Task      218 on host nid02315 reporting.
  Task      219 on host nid02315 reporting.
  Task      220 on host nid02315 reporting.
  Task      221 on host nid02315 reporting.
  Task      222 on host nid02315 reporting.
  Task      223 on host nid02315 reporting.
  Task      224 on host nid02315 reporting.
  Task      225 on host nid02315 reporting.
  Task      226 on host nid02315 reporting.
  Task      227 on host nid02315 reporting.
  Task      228 on host nid02315 reporting.
  Task      229 on host nid02315 reporting.
  Task      230 on host nid02315 reporting.
  Task      231 on host nid02315 reporting.
  Task      232 on host nid02315 reporting.
  Task      233 on host nid02315 reporting.
  Task      234 on host nid02315 reporting.
  Task      235 on host nid02315 reporting.
  Task      236 on host nid02315 reporting.
  Task      237 on host nid02315 reporting.
  Task      238 on host nid02315 reporting.
  Task      239 on host nid02315 reporting.
  Task      240 on host nid02315 reporting.
  Task      241 on host nid02315 reporting.
  Task      242 on host nid02315 reporting.
  Task      243 on host nid02315 reporting.
  Task      244 on host nid02315 reporting.
  Task      245 on host nid02315 reporting.
  Task      246 on host nid02315 reporting.
  Task      247 on host nid02315 reporting.
  Task      248 on host nid02315 reporting.
  Task      249 on host nid02315 reporting.
  Task      250 on host nid02315 reporting.
  Task      251 on host nid02315 reporting.
  Task      252 on host nid02315 reporting.
  Task      253 on host nid02315 reporting.
  Task      254 on host nid02315 reporting.
  Task      255 on host nid02315 reporting.
  Task      256 on host nid02316 reporting.
  Task      257 on host nid02316 reporting.
  Task      258 on host nid02316 reporting.
  Task      259 on host nid02316 reporting.
  Task      260 on host nid02316 reporting.
  Task      261 on host nid02316 reporting.
  Task      262 on host nid02316 reporting.
  Task      263 on host nid02316 reporting.
  Task      264 on host nid02316 reporting.
  Task      265 on host nid02316 reporting.
  Task      266 on host nid02316 reporting.
  Task      267 on host nid02316 reporting.
  Task      268 on host nid02316 reporting.
  Task      269 on host nid02316 reporting.
  Task      270 on host nid02316 reporting.
  Task      271 on host nid02316 reporting.
  Task      272 on host nid02316 reporting.
  Task      273 on host nid02316 reporting.
  Task      274 on host nid02316 reporting.
  Task      275 on host nid02316 reporting.
  Task      276 on host nid02316 reporting.
  Task      277 on host nid02316 reporting.
  Task      278 on host nid02316 reporting.
  Task      279 on host nid02316 reporting.
  Task      280 on host nid02316 reporting.
  Task      281 on host nid02316 reporting.
  Task      282 on host nid02316 reporting.
  Task      283 on host nid02316 reporting.
  Task      284 on host nid02316 reporting.
  Task      285 on host nid02316 reporting.
  Task      286 on host nid02316 reporting.
  Task      287 on host nid02316 reporting.
  Task      288 on host nid02316 reporting.
  Task      289 on host nid02316 reporting.
  Task      290 on host nid02316 reporting.
  Task      291 on host nid02316 reporting.
  Task      292 on host nid02316 reporting.
  Task      293 on host nid02316 reporting.
  Task      294 on host nid02316 reporting.
  Task      295 on host nid02316 reporting.
  Task      296 on host nid02316 reporting.
  Task      297 on host nid02316 reporting.
  Task      298 on host nid02316 reporting.
  Task      299 on host nid02316 reporting.
  Task      300 on host nid02316 reporting.
  Task      301 on host nid02316 reporting.
  Task      302 on host nid02316 reporting.
  Task      303 on host nid02316 reporting.
  Task      304 on host nid02316 reporting.
  Task      305 on host nid02316 reporting.
  Task      306 on host nid02316 reporting.
  Task      307 on host nid02316 reporting.
  Task      308 on host nid02316 reporting.
  Task      309 on host nid02316 reporting.
  Task      310 on host nid02316 reporting.
  Task      311 on host nid02316 reporting.
  Task      312 on host nid02316 reporting.
  Task      313 on host nid02316 reporting.
  Task      314 on host nid02316 reporting.
  Task      315 on host nid02316 reporting.
  Task      316 on host nid02316 reporting.
  Task      317 on host nid02316 reporting.
  Task      318 on host nid02316 reporting.
  Task      319 on host nid02316 reporting.
  Task      320 on host nid02317 reporting.
  Task      321 on host nid02317 reporting.
  Task      322 on host nid02317 reporting.
  Task      323 on host nid02317 reporting.
  Task      324 on host nid02317 reporting.
  Task      325 on host nid02317 reporting.
  Task      326 on host nid02317 reporting.
  Task      327 on host nid02317 reporting.
  Task      328 on host nid02317 reporting.
  Task      329 on host nid02317 reporting.
  Task      330 on host nid02317 reporting.
  Task      331 on host nid02317 reporting.
  Task      332 on host nid02317 reporting.
  Task      333 on host nid02317 reporting.
  Task      334 on host nid02317 reporting.
  Task      335 on host nid02317 reporting.
  Task      336 on host nid02317 reporting.
  Task      337 on host nid02317 reporting.
  Task      338 on host nid02317 reporting.
  Task      339 on host nid02317 reporting.
  Task      340 on host nid02317 reporting.
  Task      341 on host nid02317 reporting.
  Task      342 on host nid02317 reporting.
  Task      343 on host nid02317 reporting.
  Task      344 on host nid02317 reporting.
  Task      345 on host nid02317 reporting.
  Task      346 on host nid02317 reporting.
  Task      347 on host nid02317 reporting.
  Task      348 on host nid02317 reporting.
  Task      349 on host nid02317 reporting.
  Task      350 on host nid02317 reporting.
  Task      351 on host nid02317 reporting.
  Task      352 on host nid02317 reporting.
  Task      353 on host nid02317 reporting.
  Task      354 on host nid02317 reporting.
  Task      355 on host nid02317 reporting.
  Task      356 on host nid02317 reporting.
  Task      357 on host nid02317 reporting.
  Task      358 on host nid02317 reporting.
  Task      359 on host nid02317 reporting.
  Task      360 on host nid02317 reporting.
  Task      361 on host nid02317 reporting.
  Task      362 on host nid02317 reporting.
  Task      363 on host nid02317 reporting.
  Task      364 on host nid02317 reporting.
  Task      365 on host nid02317 reporting.
  Task      366 on host nid02317 reporting.
  Task      367 on host nid02317 reporting.
  Task      368 on host nid02317 reporting.
  Task      369 on host nid02317 reporting.
  Task      370 on host nid02317 reporting.
  Task      371 on host nid02317 reporting.
  Task      372 on host nid02317 reporting.
  Task      373 on host nid02317 reporting.
  Task      374 on host nid02317 reporting.
  Task      375 on host nid02317 reporting.
  Task      376 on host nid02317 reporting.
  Task      377 on host nid02317 reporting.
  Task      378 on host nid02317 reporting.
  Task      379 on host nid02317 reporting.
  Task      380 on host nid02317 reporting.
  Task      381 on host nid02317 reporting.
  Task      382 on host nid02317 reporting.
  Task      383 on host nid02317 reporting.
  Task      384 on host nid02318 reporting.
  Task      385 on host nid02318 reporting.
  Task      386 on host nid02318 reporting.
  Task      387 on host nid02318 reporting.
  Task      388 on host nid02318 reporting.
  Task      389 on host nid02318 reporting.
  Task      390 on host nid02318 reporting.
  Task      391 on host nid02318 reporting.
  Task      392 on host nid02318 reporting.
  Task      393 on host nid02318 reporting.
  Task      394 on host nid02318 reporting.
  Task      395 on host nid02318 reporting.
  Task      396 on host nid02318 reporting.
  Task      397 on host nid02318 reporting.
  Task      398 on host nid02318 reporting.
  Task      399 on host nid02318 reporting.
  Task      400 on host nid02318 reporting.
  Task      401 on host nid02318 reporting.
  Task      402 on host nid02318 reporting.
  Task      403 on host nid02318 reporting.
  Task      404 on host nid02318 reporting.
  Task      405 on host nid02318 reporting.
  Task      406 on host nid02318 reporting.
  Task      407 on host nid02318 reporting.
  Task      408 on host nid02318 reporting.
  Task      409 on host nid02318 reporting.
  Task      410 on host nid02318 reporting.
  Task      411 on host nid02318 reporting.
  Task      412 on host nid02318 reporting.
  Task      413 on host nid02318 reporting.
  Task      414 on host nid02318 reporting.
  Task      415 on host nid02318 reporting.
  Task      416 on host nid02318 reporting.
  Task      417 on host nid02318 reporting.
  Task      418 on host nid02318 reporting.
  Task      419 on host nid02318 reporting.
  Task      420 on host nid02318 reporting.
  Task      421 on host nid02318 reporting.
  Task      422 on host nid02318 reporting.
  Task      423 on host nid02318 reporting.
  Task      424 on host nid02318 reporting.
  Task      425 on host nid02318 reporting.
  Task      426 on host nid02318 reporting.
  Task      427 on host nid02318 reporting.
  Task      428 on host nid02318 reporting.
  Task      429 on host nid02318 reporting.
  Task      430 on host nid02318 reporting.
  Task      431 on host nid02318 reporting.
  Task      432 on host nid02318 reporting.
  Task      433 on host nid02318 reporting.
  Task      434 on host nid02318 reporting.
  Task      435 on host nid02318 reporting.
  Task      436 on host nid02318 reporting.
  Task      437 on host nid02318 reporting.
  Task      438 on host nid02318 reporting.
  Task      439 on host nid02318 reporting.
  Task      440 on host nid02318 reporting.
  Task      441 on host nid02318 reporting.
  Task      442 on host nid02318 reporting.
  Task      443 on host nid02318 reporting.
  Task      444 on host nid02318 reporting.
  Task      445 on host nid02318 reporting.
  Task      446 on host nid02318 reporting.
  Task      447 on host nid02318 reporting.
  Task      448 on host nid02319 reporting.
  Task      449 on host nid02319 reporting.
  Task      450 on host nid02319 reporting.
  Task      451 on host nid02319 reporting.
  Task      452 on host nid02319 reporting.
  Task      453 on host nid02319 reporting.
  Task      454 on host nid02319 reporting.
  Task      455 on host nid02319 reporting.
  Task      456 on host nid02319 reporting.
  Task      457 on host nid02319 reporting.
  Task      458 on host nid02319 reporting.
  Task      459 on host nid02319 reporting.
  Task      460 on host nid02319 reporting.
  Task      461 on host nid02319 reporting.
  Task      462 on host nid02319 reporting.
  Task      463 on host nid02319 reporting.
  Task      464 on host nid02319 reporting.
  Task      465 on host nid02319 reporting.
  Task      466 on host nid02319 reporting.
  Task      467 on host nid02319 reporting.
  Task      468 on host nid02319 reporting.
  Task      469 on host nid02319 reporting.
  Task      470 on host nid02319 reporting.
  Task      471 on host nid02319 reporting.
  Task      472 on host nid02319 reporting.
  Task      473 on host nid02319 reporting.
  Task      474 on host nid02319 reporting.
  Task      475 on host nid02319 reporting.
  Task      476 on host nid02319 reporting.
  Task      477 on host nid02319 reporting.
  Task      478 on host nid02319 reporting.
  Task      479 on host nid02319 reporting.
  Task      480 on host nid02319 reporting.
  Task      481 on host nid02319 reporting.
  Task      482 on host nid02319 reporting.
  Task      483 on host nid02319 reporting.
  Task      484 on host nid02319 reporting.
  Task      485 on host nid02319 reporting.
  Task      486 on host nid02319 reporting.
  Task      487 on host nid02319 reporting.
  Task      488 on host nid02319 reporting.
  Task      489 on host nid02319 reporting.
  Task      490 on host nid02319 reporting.
  Task      491 on host nid02319 reporting.
  Task      492 on host nid02319 reporting.
  Task      493 on host nid02319 reporting.
  Task      494 on host nid02319 reporting.
  Task      495 on host nid02319 reporting.
  Task      496 on host nid02319 reporting.
  Task      497 on host nid02319 reporting.
  Task      498 on host nid02319 reporting.
  Task      499 on host nid02319 reporting.
  Task      500 on host nid02319 reporting.
  Task      501 on host nid02319 reporting.
  Task      502 on host nid02319 reporting.
  Task      503 on host nid02319 reporting.
  Task      504 on host nid02319 reporting.
  Task      505 on host nid02319 reporting.
  Task      506 on host nid02319 reporting.
  Task      507 on host nid02319 reporting.
  Task      508 on host nid02319 reporting.
  Task      509 on host nid02319 reporting.
  Task      510 on host nid02319 reporting.
  Task      511 on host nid02319 reporting.

  Performing system and environment tests:
  | Environment variable OMP_NUM_THREADS correctly set to 1.
  | Maximum stacksize for task 0: unlimited
  | Maximum stacksize for task 1: unlimited
  | Maximum stacksize for task 2: unlimited
  | Maximum stacksize for task 3: unlimited
  | Maximum stacksize for task 4: unlimited
  | Maximum stacksize for task 5: unlimited
  | Maximum stacksize for task 6: unlimited
  | Maximum stacksize for task 7: unlimited
  | Maximum stacksize for task 8: unlimited
  | Maximum stacksize for task 9: unlimited
  | Maximum stacksize for task 10: unlimited
  | Maximum stacksize for task 11: unlimited
  | Maximum stacksize for task 12: unlimited
  | Maximum stacksize for task 13: unlimited
  | Maximum stacksize for task 14: unlimited
  | Maximum stacksize for task 15: unlimited
  | Maximum stacksize for task 16: unlimited
  | Maximum stacksize for task 17: unlimited
  | Maximum stacksize for task 18: unlimited
  | Maximum stacksize for task 19: unlimited
  | Maximum stacksize for task 20: unlimited
  | Maximum stacksize for task 21: unlimited
  | Maximum stacksize for task 22: unlimited
  | Maximum stacksize for task 23: unlimited
  | Maximum stacksize for task 24: unlimited
  | Maximum stacksize for task 25: unlimited
  | Maximum stacksize for task 26: unlimited
  | Maximum stacksize for task 27: unlimited
  | Maximum stacksize for task 28: unlimited
  | Maximum stacksize for task 29: unlimited
  | Maximum stacksize for task 30: unlimited
  | Maximum stacksize for task 31: unlimited
  | Maximum stacksize for task 32: unlimited
  | Maximum stacksize for task 33: unlimited
  | Maximum stacksize for task 34: unlimited
  | Maximum stacksize for task 35: unlimited
  | Maximum stacksize for task 36: unlimited
  | Maximum stacksize for task 37: unlimited
  | Maximum stacksize for task 38: unlimited
  | Maximum stacksize for task 39: unlimited
  | Maximum stacksize for task 40: unlimited
  | Maximum stacksize for task 41: unlimited
  | Maximum stacksize for task 42: unlimited
  | Maximum stacksize for task 43: unlimited
  | Maximum stacksize for task 44: unlimited
  | Maximum stacksize for task 45: unlimited
  | Maximum stacksize for task 46: unlimited
  | Maximum stacksize for task 47: unlimited
  | Maximum stacksize for task 48: unlimited
  | Maximum stacksize for task 49: unlimited
  | Maximum stacksize for task 50: unlimited
  | Maximum stacksize for task 51: unlimited
  | Maximum stacksize for task 52: unlimited
  | Maximum stacksize for task 53: unlimited
  | Maximum stacksize for task 54: unlimited
  | Maximum stacksize for task 55: unlimited
  | Maximum stacksize for task 56: unlimited
  | Maximum stacksize for task 57: unlimited
  | Maximum stacksize for task 58: unlimited
  | Maximum stacksize for task 59: unlimited
  | Maximum stacksize for task 60: unlimited
  | Maximum stacksize for task 61: unlimited
  | Maximum stacksize for task 62: unlimited
  | Maximum stacksize for task 63: unlimited
  | Maximum stacksize for task 64: unlimited
  | Maximum stacksize for task 65: unlimited
  | Maximum stacksize for task 66: unlimited
  | Maximum stacksize for task 67: unlimited
  | Maximum stacksize for task 68: unlimited
  | Maximum stacksize for task 69: unlimited
  | Maximum stacksize for task 70: unlimited
  | Maximum stacksize for task 71: unlimited
  | Maximum stacksize for task 72: unlimited
  | Maximum stacksize for task 73: unlimited
  | Maximum stacksize for task 74: unlimited
  | Maximum stacksize for task 75: unlimited
  | Maximum stacksize for task 76: unlimited
  | Maximum stacksize for task 77: unlimited
  | Maximum stacksize for task 78: unlimited
  | Maximum stacksize for task 79: unlimited
  | Maximum stacksize for task 80: unlimited
  | Maximum stacksize for task 81: unlimited
  | Maximum stacksize for task 82: unlimited
  | Maximum stacksize for task 83: unlimited
  | Maximum stacksize for task 84: unlimited
  | Maximum stacksize for task 85: unlimited
  | Maximum stacksize for task 86: unlimited
  | Maximum stacksize for task 87: unlimited
  | Maximum stacksize for task 88: unlimited
  | Maximum stacksize for task 89: unlimited
  | Maximum stacksize for task 90: unlimited
  | Maximum stacksize for task 91: unlimited
  | Maximum stacksize for task 92: unlimited
  | Maximum stacksize for task 93: unlimited
  | Maximum stacksize for task 94: unlimited
  | Maximum stacksize for task 95: unlimited
  | Maximum stacksize for task 96: unlimited
  | Maximum stacksize for task 97: unlimited
  | Maximum stacksize for task 98: unlimited
  | Maximum stacksize for task 99: unlimited
  | Maximum stacksize for task 100: unlimited
  | Maximum stacksize for task 101: unlimited
  | Maximum stacksize for task 102: unlimited
  | Maximum stacksize for task 103: unlimited
  | Maximum stacksize for task 104: unlimited
  | Maximum stacksize for task 105: unlimited
  | Maximum stacksize for task 106: unlimited
  | Maximum stacksize for task 107: unlimited
  | Maximum stacksize for task 108: unlimited
  | Maximum stacksize for task 109: unlimited
  | Maximum stacksize for task 110: unlimited
  | Maximum stacksize for task 111: unlimited
  | Maximum stacksize for task 112: unlimited
  | Maximum stacksize for task 113: unlimited
  | Maximum stacksize for task 114: unlimited
  | Maximum stacksize for task 115: unlimited
  | Maximum stacksize for task 116: unlimited
  | Maximum stacksize for task 117: unlimited
  | Maximum stacksize for task 118: unlimited
  | Maximum stacksize for task 119: unlimited
  | Maximum stacksize for task 120: unlimited
  | Maximum stacksize for task 121: unlimited
  | Maximum stacksize for task 122: unlimited
  | Maximum stacksize for task 123: unlimited
  | Maximum stacksize for task 124: unlimited
  | Maximum stacksize for task 125: unlimited
  | Maximum stacksize for task 126: unlimited
  | Maximum stacksize for task 127: unlimited
  | Maximum stacksize for task 128: unlimited
  | Maximum stacksize for task 129: unlimited
  | Maximum stacksize for task 130: unlimited
  | Maximum stacksize for task 131: unlimited
  | Maximum stacksize for task 132: unlimited
  | Maximum stacksize for task 133: unlimited
  | Maximum stacksize for task 134: unlimited
  | Maximum stacksize for task 135: unlimited
  | Maximum stacksize for task 136: unlimited
  | Maximum stacksize for task 137: unlimited
  | Maximum stacksize for task 138: unlimited
  | Maximum stacksize for task 139: unlimited
  | Maximum stacksize for task 140: unlimited
  | Maximum stacksize for task 141: unlimited
  | Maximum stacksize for task 142: unlimited
  | Maximum stacksize for task 143: unlimited
  | Maximum stacksize for task 144: unlimited
  | Maximum stacksize for task 145: unlimited
  | Maximum stacksize for task 146: unlimited
  | Maximum stacksize for task 147: unlimited
  | Maximum stacksize for task 148: unlimited
  | Maximum stacksize for task 149: unlimited
  | Maximum stacksize for task 150: unlimited
  | Maximum stacksize for task 151: unlimited
  | Maximum stacksize for task 152: unlimited
  | Maximum stacksize for task 153: unlimited
  | Maximum stacksize for task 154: unlimited
  | Maximum stacksize for task 155: unlimited
  | Maximum stacksize for task 156: unlimited
  | Maximum stacksize for task 157: unlimited
  | Maximum stacksize for task 158: unlimited
  | Maximum stacksize for task 159: unlimited
  | Maximum stacksize for task 160: unlimited
  | Maximum stacksize for task 161: unlimited
  | Maximum stacksize for task 162: unlimited
  | Maximum stacksize for task 163: unlimited
  | Maximum stacksize for task 164: unlimited
  | Maximum stacksize for task 165: unlimited
  | Maximum stacksize for task 166: unlimited
  | Maximum stacksize for task 167: unlimited
  | Maximum stacksize for task 168: unlimited
  | Maximum stacksize for task 169: unlimited
  | Maximum stacksize for task 170: unlimited
  | Maximum stacksize for task 171: unlimited
  | Maximum stacksize for task 172: unlimited
  | Maximum stacksize for task 173: unlimited
  | Maximum stacksize for task 174: unlimited
  | Maximum stacksize for task 175: unlimited
  | Maximum stacksize for task 176: unlimited
  | Maximum stacksize for task 177: unlimited
  | Maximum stacksize for task 178: unlimited
  | Maximum stacksize for task 179: unlimited
  | Maximum stacksize for task 180: unlimited
  | Maximum stacksize for task 181: unlimited
  | Maximum stacksize for task 182: unlimited
  | Maximum stacksize for task 183: unlimited
  | Maximum stacksize for task 184: unlimited
  | Maximum stacksize for task 185: unlimited
  | Maximum stacksize for task 186: unlimited
  | Maximum stacksize for task 187: unlimited
  | Maximum stacksize for task 188: unlimited
  | Maximum stacksize for task 189: unlimited
  | Maximum stacksize for task 190: unlimited
  | Maximum stacksize for task 191: unlimited
  | Maximum stacksize for task 192: unlimited
  | Maximum stacksize for task 193: unlimited
  | Maximum stacksize for task 194: unlimited
  | Maximum stacksize for task 195: unlimited
  | Maximum stacksize for task 196: unlimited
  | Maximum stacksize for task 197: unlimited
  | Maximum stacksize for task 198: unlimited
  | Maximum stacksize for task 199: unlimited
  | Maximum stacksize for task 200: unlimited
  | Maximum stacksize for task 201: unlimited
  | Maximum stacksize for task 202: unlimited
  | Maximum stacksize for task 203: unlimited
  | Maximum stacksize for task 204: unlimited
  | Maximum stacksize for task 205: unlimited
  | Maximum stacksize for task 206: unlimited
  | Maximum stacksize for task 207: unlimited
  | Maximum stacksize for task 208: unlimited
  | Maximum stacksize for task 209: unlimited
  | Maximum stacksize for task 210: unlimited
  | Maximum stacksize for task 211: unlimited
  | Maximum stacksize for task 212: unlimited
  | Maximum stacksize for task 213: unlimited
  | Maximum stacksize for task 214: unlimited
  | Maximum stacksize for task 215: unlimited
  | Maximum stacksize for task 216: unlimited
  | Maximum stacksize for task 217: unlimited
  | Maximum stacksize for task 218: unlimited
  | Maximum stacksize for task 219: unlimited
  | Maximum stacksize for task 220: unlimited
  | Maximum stacksize for task 221: unlimited
  | Maximum stacksize for task 222: unlimited
  | Maximum stacksize for task 223: unlimited
  | Maximum stacksize for task 224: unlimited
  | Maximum stacksize for task 225: unlimited
  | Maximum stacksize for task 226: unlimited
  | Maximum stacksize for task 227: unlimited
  | Maximum stacksize for task 228: unlimited
  | Maximum stacksize for task 229: unlimited
  | Maximum stacksize for task 230: unlimited
  | Maximum stacksize for task 231: unlimited
  | Maximum stacksize for task 232: unlimited
  | Maximum stacksize for task 233: unlimited
  | Maximum stacksize for task 234: unlimited
  | Maximum stacksize for task 235: unlimited
  | Maximum stacksize for task 236: unlimited
  | Maximum stacksize for task 237: unlimited
  | Maximum stacksize for task 238: unlimited
  | Maximum stacksize for task 239: unlimited
  | Maximum stacksize for task 240: unlimited
  | Maximum stacksize for task 241: unlimited
  | Maximum stacksize for task 242: unlimited
  | Maximum stacksize for task 243: unlimited
  | Maximum stacksize for task 244: unlimited
  | Maximum stacksize for task 245: unlimited
  | Maximum stacksize for task 246: unlimited
  | Maximum stacksize for task 247: unlimited
  | Maximum stacksize for task 248: unlimited
  | Maximum stacksize for task 249: unlimited
  | Maximum stacksize for task 250: unlimited
  | Maximum stacksize for task 251: unlimited
  | Maximum stacksize for task 252: unlimited
  | Maximum stacksize for task 253: unlimited
  | Maximum stacksize for task 254: unlimited
  | Maximum stacksize for task 255: unlimited
  | Maximum stacksize for task 256: unlimited
  | Maximum stacksize for task 257: unlimited
  | Maximum stacksize for task 258: unlimited
  | Maximum stacksize for task 259: unlimited
  | Maximum stacksize for task 260: unlimited
  | Maximum stacksize for task 261: unlimited
  | Maximum stacksize for task 262: unlimited
  | Maximum stacksize for task 263: unlimited
  | Maximum stacksize for task 264: unlimited
  | Maximum stacksize for task 265: unlimited
  | Maximum stacksize for task 266: unlimited
  | Maximum stacksize for task 267: unlimited
  | Maximum stacksize for task 268: unlimited
  | Maximum stacksize for task 269: unlimited
  | Maximum stacksize for task 270: unlimited
  | Maximum stacksize for task 271: unlimited
  | Maximum stacksize for task 272: unlimited
  | Maximum stacksize for task 273: unlimited
  | Maximum stacksize for task 274: unlimited
  | Maximum stacksize for task 275: unlimited
  | Maximum stacksize for task 276: unlimited
  | Maximum stacksize for task 277: unlimited
  | Maximum stacksize for task 278: unlimited
  | Maximum stacksize for task 279: unlimited
  | Maximum stacksize for task 280: unlimited
  | Maximum stacksize for task 281: unlimited
  | Maximum stacksize for task 282: unlimited
  | Maximum stacksize for task 283: unlimited
  | Maximum stacksize for task 284: unlimited
  | Maximum stacksize for task 285: unlimited
  | Maximum stacksize for task 286: unlimited
  | Maximum stacksize for task 287: unlimited
  | Maximum stacksize for task 288: unlimited
  | Maximum stacksize for task 289: unlimited
  | Maximum stacksize for task 290: unlimited
  | Maximum stacksize for task 291: unlimited
  | Maximum stacksize for task 292: unlimited
  | Maximum stacksize for task 293: unlimited
  | Maximum stacksize for task 294: unlimited
  | Maximum stacksize for task 295: unlimited
  | Maximum stacksize for task 296: unlimited
  | Maximum stacksize for task 297: unlimited
  | Maximum stacksize for task 298: unlimited
  | Maximum stacksize for task 299: unlimited
  | Maximum stacksize for task 300: unlimited
  | Maximum stacksize for task 301: unlimited
  | Maximum stacksize for task 302: unlimited
  | Maximum stacksize for task 303: unlimited
  | Maximum stacksize for task 304: unlimited
  | Maximum stacksize for task 305: unlimited
  | Maximum stacksize for task 306: unlimited
  | Maximum stacksize for task 307: unlimited
  | Maximum stacksize for task 308: unlimited
  | Maximum stacksize for task 309: unlimited
  | Maximum stacksize for task 310: unlimited
  | Maximum stacksize for task 311: unlimited
  | Maximum stacksize for task 312: unlimited
  | Maximum stacksize for task 313: unlimited
  | Maximum stacksize for task 314: unlimited
  | Maximum stacksize for task 315: unlimited
  | Maximum stacksize for task 316: unlimited
  | Maximum stacksize for task 317: unlimited
  | Maximum stacksize for task 318: unlimited
  | Maximum stacksize for task 319: unlimited
  | Maximum stacksize for task 320: unlimited
  | Maximum stacksize for task 321: unlimited
  | Maximum stacksize for task 322: unlimited
  | Maximum stacksize for task 323: unlimited
  | Maximum stacksize for task 324: unlimited
  | Maximum stacksize for task 325: unlimited
  | Maximum stacksize for task 326: unlimited
  | Maximum stacksize for task 327: unlimited
  | Maximum stacksize for task 328: unlimited
  | Maximum stacksize for task 329: unlimited
  | Maximum stacksize for task 330: unlimited
  | Maximum stacksize for task 331: unlimited
  | Maximum stacksize for task 332: unlimited
  | Maximum stacksize for task 333: unlimited
  | Maximum stacksize for task 334: unlimited
  | Maximum stacksize for task 335: unlimited
  | Maximum stacksize for task 336: unlimited
  | Maximum stacksize for task 337: unlimited
  | Maximum stacksize for task 338: unlimited
  | Maximum stacksize for task 339: unlimited
  | Maximum stacksize for task 340: unlimited
  | Maximum stacksize for task 341: unlimited
  | Maximum stacksize for task 342: unlimited
  | Maximum stacksize for task 343: unlimited
  | Maximum stacksize for task 344: unlimited
  | Maximum stacksize for task 345: unlimited
  | Maximum stacksize for task 346: unlimited
  | Maximum stacksize for task 347: unlimited
  | Maximum stacksize for task 348: unlimited
  | Maximum stacksize for task 349: unlimited
  | Maximum stacksize for task 350: unlimited
  | Maximum stacksize for task 351: unlimited
  | Maximum stacksize for task 352: unlimited
  | Maximum stacksize for task 353: unlimited
  | Maximum stacksize for task 354: unlimited
  | Maximum stacksize for task 355: unlimited
  | Maximum stacksize for task 356: unlimited
  | Maximum stacksize for task 357: unlimited
  | Maximum stacksize for task 358: unlimited
  | Maximum stacksize for task 359: unlimited
  | Maximum stacksize for task 360: unlimited
  | Maximum stacksize for task 361: unlimited
  | Maximum stacksize for task 362: unlimited
  | Maximum stacksize for task 363: unlimited
  | Maximum stacksize for task 364: unlimited
  | Maximum stacksize for task 365: unlimited
  | Maximum stacksize for task 366: unlimited
  | Maximum stacksize for task 367: unlimited
  | Maximum stacksize for task 368: unlimited
  | Maximum stacksize for task 369: unlimited
  | Maximum stacksize for task 370: unlimited
  | Maximum stacksize for task 371: unlimited
  | Maximum stacksize for task 372: unlimited
  | Maximum stacksize for task 373: unlimited
  | Maximum stacksize for task 374: unlimited
  | Maximum stacksize for task 375: unlimited
  | Maximum stacksize for task 376: unlimited
  | Maximum stacksize for task 377: unlimited
  | Maximum stacksize for task 378: unlimited
  | Maximum stacksize for task 379: unlimited
  | Maximum stacksize for task 380: unlimited
  | Maximum stacksize for task 381: unlimited
  | Maximum stacksize for task 382: unlimited
  | Maximum stacksize for task 383: unlimited
  | Maximum stacksize for task 384: unlimited
  | Maximum stacksize for task 385: unlimited
  | Maximum stacksize for task 386: unlimited
  | Maximum stacksize for task 387: unlimited
  | Maximum stacksize for task 388: unlimited
  | Maximum stacksize for task 389: unlimited
  | Maximum stacksize for task 390: unlimited
  | Maximum stacksize for task 391: unlimited
  | Maximum stacksize for task 392: unlimited
  | Maximum stacksize for task 393: unlimited
  | Maximum stacksize for task 394: unlimited
  | Maximum stacksize for task 395: unlimited
  | Maximum stacksize for task 396: unlimited
  | Maximum stacksize for task 397: unlimited
  | Maximum stacksize for task 398: unlimited
  | Maximum stacksize for task 399: unlimited
  | Maximum stacksize for task 400: unlimited
  | Maximum stacksize for task 401: unlimited
  | Maximum stacksize for task 402: unlimited
  | Maximum stacksize for task 403: unlimited
  | Maximum stacksize for task 404: unlimited
  | Maximum stacksize for task 405: unlimited
  | Maximum stacksize for task 406: unlimited
  | Maximum stacksize for task 407: unlimited
  | Maximum stacksize for task 408: unlimited
  | Maximum stacksize for task 409: unlimited
  | Maximum stacksize for task 410: unlimited
  | Maximum stacksize for task 411: unlimited
  | Maximum stacksize for task 412: unlimited
  | Maximum stacksize for task 413: unlimited
  | Maximum stacksize for task 414: unlimited
  | Maximum stacksize for task 415: unlimited
  | Maximum stacksize for task 416: unlimited
  | Maximum stacksize for task 417: unlimited
  | Maximum stacksize for task 418: unlimited
  | Maximum stacksize for task 419: unlimited
  | Maximum stacksize for task 420: unlimited
  | Maximum stacksize for task 421: unlimited
  | Maximum stacksize for task 422: unlimited
  | Maximum stacksize for task 423: unlimited
  | Maximum stacksize for task 424: unlimited
  | Maximum stacksize for task 425: unlimited
  | Maximum stacksize for task 426: unlimited
  | Maximum stacksize for task 427: unlimited
  | Maximum stacksize for task 428: unlimited
  | Maximum stacksize for task 429: unlimited
  | Maximum stacksize for task 430: unlimited
  | Maximum stacksize for task 431: unlimited
  | Maximum stacksize for task 432: unlimited
  | Maximum stacksize for task 433: unlimited
  | Maximum stacksize for task 434: unlimited
  | Maximum stacksize for task 435: unlimited
  | Maximum stacksize for task 436: unlimited
  | Maximum stacksize for task 437: unlimited
  | Maximum stacksize for task 438: unlimited
  | Maximum stacksize for task 439: unlimited
  | Maximum stacksize for task 440: unlimited
  | Maximum stacksize for task 441: unlimited
  | Maximum stacksize for task 442: unlimited
  | Maximum stacksize for task 443: unlimited
  | Maximum stacksize for task 444: unlimited
  | Maximum stacksize for task 445: unlimited
  | Maximum stacksize for task 446: unlimited
  | Maximum stacksize for task 447: unlimited
  | Maximum stacksize for task 448: unlimited
  | Maximum stacksize for task 449: unlimited
  | Maximum stacksize for task 450: unlimited
  | Maximum stacksize for task 451: unlimited
  | Maximum stacksize for task 452: unlimited
  | Maximum stacksize for task 453: unlimited
  | Maximum stacksize for task 454: unlimited
  | Maximum stacksize for task 455: unlimited
  | Maximum stacksize for task 456: unlimited
  | Maximum stacksize for task 457: unlimited
  | Maximum stacksize for task 458: unlimited
  | Maximum stacksize for task 459: unlimited
  | Maximum stacksize for task 460: unlimited
  | Maximum stacksize for task 461: unlimited
  | Maximum stacksize for task 462: unlimited
  | Maximum stacksize for task 463: unlimited
  | Maximum stacksize for task 464: unlimited
  | Maximum stacksize for task 465: unlimited
  | Maximum stacksize for task 466: unlimited
  | Maximum stacksize for task 467: unlimited
  | Maximum stacksize for task 468: unlimited
  | Maximum stacksize for task 469: unlimited
  | Maximum stacksize for task 470: unlimited
  | Maximum stacksize for task 471: unlimited
  | Maximum stacksize for task 472: unlimited
  | Maximum stacksize for task 473: unlimited
  | Maximum stacksize for task 474: unlimited
  | Maximum stacksize for task 475: unlimited
  | Maximum stacksize for task 476: unlimited
  | Maximum stacksize for task 477: unlimited
  | Maximum stacksize for task 478: unlimited
  | Maximum stacksize for task 479: unlimited
  | Maximum stacksize for task 480: unlimited
  | Maximum stacksize for task 481: unlimited
  | Maximum stacksize for task 482: unlimited
  | Maximum stacksize for task 483: unlimited
  | Maximum stacksize for task 484: unlimited
  | Maximum stacksize for task 485: unlimited
  | Maximum stacksize for task 486: unlimited
  | Maximum stacksize for task 487: unlimited
  | Maximum stacksize for task 488: unlimited
  | Maximum stacksize for task 489: unlimited
  | Maximum stacksize for task 490: unlimited
  | Maximum stacksize for task 491: unlimited
  | Maximum stacksize for task 492: unlimited
  | Maximum stacksize for task 493: unlimited
  | Maximum stacksize for task 494: unlimited
  | Maximum stacksize for task 495: unlimited
  | Maximum stacksize for task 496: unlimited
  | Maximum stacksize for task 497: unlimited
  | Maximum stacksize for task 498: unlimited
  | Maximum stacksize for task 499: unlimited
  | Maximum stacksize for task 500: unlimited
  | Maximum stacksize for task 501: unlimited
  | Maximum stacksize for task 502: unlimited
  | Maximum stacksize for task 503: unlimited
  | Maximum stacksize for task 504: unlimited
  | Maximum stacksize for task 505: unlimited
  | Maximum stacksize for task 506: unlimited
  | Maximum stacksize for task 507: unlimited
  | Maximum stacksize for task 508: unlimited
  | Maximum stacksize for task 509: unlimited
  | Maximum stacksize for task 510: unlimited
  | Maximum stacksize for task 511: unlimited
  | Current stacksize for task 0: unlimited
  | Current stacksize for task 1: unlimited
  | Current stacksize for task 2: unlimited
  | Current stacksize for task 3: unlimited
  | Current stacksize for task 4: unlimited
  | Current stacksize for task 5: unlimited
  | Current stacksize for task 6: unlimited
  | Current stacksize for task 7: unlimited
  | Current stacksize for task 8: unlimited
  | Current stacksize for task 9: unlimited
  | Current stacksize for task 10: unlimited
  | Current stacksize for task 11: unlimited
  | Current stacksize for task 12: unlimited
  | Current stacksize for task 13: unlimited
  | Current stacksize for task 14: unlimited
  | Current stacksize for task 15: unlimited
  | Current stacksize for task 16: unlimited
  | Current stacksize for task 17: unlimited
  | Current stacksize for task 18: unlimited
  | Current stacksize for task 19: unlimited
  | Current stacksize for task 20: unlimited
  | Current stacksize for task 21: unlimited
  | Current stacksize for task 22: unlimited
  | Current stacksize for task 23: unlimited
  | Current stacksize for task 24: unlimited
  | Current stacksize for task 25: unlimited
  | Current stacksize for task 26: unlimited
  | Current stacksize for task 27: unlimited
  | Current stacksize for task 28: unlimited
  | Current stacksize for task 29: unlimited
  | Current stacksize for task 30: unlimited
  | Current stacksize for task 31: unlimited
  | Current stacksize for task 32: unlimited
  | Current stacksize for task 33: unlimited
  | Current stacksize for task 34: unlimited
  | Current stacksize for task 35: unlimited
  | Current stacksize for task 36: unlimited
  | Current stacksize for task 37: unlimited
  | Current stacksize for task 38: unlimited
  | Current stacksize for task 39: unlimited
  | Current stacksize for task 40: unlimited
  | Current stacksize for task 41: unlimited
  | Current stacksize for task 42: unlimited
  | Current stacksize for task 43: unlimited
  | Current stacksize for task 44: unlimited
  | Current stacksize for task 45: unlimited
  | Current stacksize for task 46: unlimited
  | Current stacksize for task 47: unlimited
  | Current stacksize for task 48: unlimited
  | Current stacksize for task 49: unlimited
  | Current stacksize for task 50: unlimited
  | Current stacksize for task 51: unlimited
  | Current stacksize for task 52: unlimited
  | Current stacksize for task 53: unlimited
  | Current stacksize for task 54: unlimited
  | Current stacksize for task 55: unlimited
  | Current stacksize for task 56: unlimited
  | Current stacksize for task 57: unlimited
  | Current stacksize for task 58: unlimited
  | Current stacksize for task 59: unlimited
  | Current stacksize for task 60: unlimited
  | Current stacksize for task 61: unlimited
  | Current stacksize for task 62: unlimited
  | Current stacksize for task 63: unlimited
  | Current stacksize for task 64: unlimited
  | Current stacksize for task 65: unlimited
  | Current stacksize for task 66: unlimited
  | Current stacksize for task 67: unlimited
  | Current stacksize for task 68: unlimited
  | Current stacksize for task 69: unlimited
  | Current stacksize for task 70: unlimited
  | Current stacksize for task 71: unlimited
  | Current stacksize for task 72: unlimited
  | Current stacksize for task 73: unlimited
  | Current stacksize for task 74: unlimited
  | Current stacksize for task 75: unlimited
  | Current stacksize for task 76: unlimited
  | Current stacksize for task 77: unlimited
  | Current stacksize for task 78: unlimited
  | Current stacksize for task 79: unlimited
  | Current stacksize for task 80: unlimited
  | Current stacksize for task 81: unlimited
  | Current stacksize for task 82: unlimited
  | Current stacksize for task 83: unlimited
  | Current stacksize for task 84: unlimited
  | Current stacksize for task 85: unlimited
  | Current stacksize for task 86: unlimited
  | Current stacksize for task 87: unlimited
  | Current stacksize for task 88: unlimited
  | Current stacksize for task 89: unlimited
  | Current stacksize for task 90: unlimited
  | Current stacksize for task 91: unlimited
  | Current stacksize for task 92: unlimited
  | Current stacksize for task 93: unlimited
  | Current stacksize for task 94: unlimited
  | Current stacksize for task 95: unlimited
  | Current stacksize for task 96: unlimited
  | Current stacksize for task 97: unlimited
  | Current stacksize for task 98: unlimited
  | Current stacksize for task 99: unlimited
  | Current stacksize for task 100: unlimited
  | Current stacksize for task 101: unlimited
  | Current stacksize for task 102: unlimited
  | Current stacksize for task 103: unlimited
  | Current stacksize for task 104: unlimited
  | Current stacksize for task 105: unlimited
  | Current stacksize for task 106: unlimited
  | Current stacksize for task 107: unlimited
  | Current stacksize for task 108: unlimited
  | Current stacksize for task 109: unlimited
  | Current stacksize for task 110: unlimited
  | Current stacksize for task 111: unlimited
  | Current stacksize for task 112: unlimited
  | Current stacksize for task 113: unlimited
  | Current stacksize for task 114: unlimited
  | Current stacksize for task 115: unlimited
  | Current stacksize for task 116: unlimited
  | Current stacksize for task 117: unlimited
  | Current stacksize for task 118: unlimited
  | Current stacksize for task 119: unlimited
  | Current stacksize for task 120: unlimited
  | Current stacksize for task 121: unlimited
  | Current stacksize for task 122: unlimited
  | Current stacksize for task 123: unlimited
  | Current stacksize for task 124: unlimited
  | Current stacksize for task 125: unlimited
  | Current stacksize for task 126: unlimited
  | Current stacksize for task 127: unlimited
  | Current stacksize for task 128: unlimited
  | Current stacksize for task 129: unlimited
  | Current stacksize for task 130: unlimited
  | Current stacksize for task 131: unlimited
  | Current stacksize for task 132: unlimited
  | Current stacksize for task 133: unlimited
  | Current stacksize for task 134: unlimited
  | Current stacksize for task 135: unlimited
  | Current stacksize for task 136: unlimited
  | Current stacksize for task 137: unlimited
  | Current stacksize for task 138: unlimited
  | Current stacksize for task 139: unlimited
  | Current stacksize for task 140: unlimited
  | Current stacksize for task 141: unlimited
  | Current stacksize for task 142: unlimited
  | Current stacksize for task 143: unlimited
  | Current stacksize for task 144: unlimited
  | Current stacksize for task 145: unlimited
  | Current stacksize for task 146: unlimited
  | Current stacksize for task 147: unlimited
  | Current stacksize for task 148: unlimited
  | Current stacksize for task 149: unlimited
  | Current stacksize for task 150: unlimited
  | Current stacksize for task 151: unlimited
  | Current stacksize for task 152: unlimited
  | Current stacksize for task 153: unlimited
  | Current stacksize for task 154: unlimited
  | Current stacksize for task 155: unlimited
  | Current stacksize for task 156: unlimited
  | Current stacksize for task 157: unlimited
  | Current stacksize for task 158: unlimited
  | Current stacksize for task 159: unlimited
  | Current stacksize for task 160: unlimited
  | Current stacksize for task 161: unlimited
  | Current stacksize for task 162: unlimited
  | Current stacksize for task 163: unlimited
  | Current stacksize for task 164: unlimited
  | Current stacksize for task 165: unlimited
  | Current stacksize for task 166: unlimited
  | Current stacksize for task 167: unlimited
  | Current stacksize for task 168: unlimited
  | Current stacksize for task 169: unlimited
  | Current stacksize for task 170: unlimited
  | Current stacksize for task 171: unlimited
  | Current stacksize for task 172: unlimited
  | Current stacksize for task 173: unlimited
  | Current stacksize for task 174: unlimited
  | Current stacksize for task 175: unlimited
  | Current stacksize for task 176: unlimited
  | Current stacksize for task 177: unlimited
  | Current stacksize for task 178: unlimited
  | Current stacksize for task 179: unlimited
  | Current stacksize for task 180: unlimited
  | Current stacksize for task 181: unlimited
  | Current stacksize for task 182: unlimited
  | Current stacksize for task 183: unlimited
  | Current stacksize for task 184: unlimited
  | Current stacksize for task 185: unlimited
  | Current stacksize for task 186: unlimited
  | Current stacksize for task 187: unlimited
  | Current stacksize for task 188: unlimited
  | Current stacksize for task 189: unlimited
  | Current stacksize for task 190: unlimited
  | Current stacksize for task 191: unlimited
  | Current stacksize for task 192: unlimited
  | Current stacksize for task 193: unlimited
  | Current stacksize for task 194: unlimited
  | Current stacksize for task 195: unlimited
  | Current stacksize for task 196: unlimited
  | Current stacksize for task 197: unlimited
  | Current stacksize for task 198: unlimited
  | Current stacksize for task 199: unlimited
  | Current stacksize for task 200: unlimited
  | Current stacksize for task 201: unlimited
  | Current stacksize for task 202: unlimited
  | Current stacksize for task 203: unlimited
  | Current stacksize for task 204: unlimited
  | Current stacksize for task 205: unlimited
  | Current stacksize for task 206: unlimited
  | Current stacksize for task 207: unlimited
  | Current stacksize for task 208: unlimited
  | Current stacksize for task 209: unlimited
  | Current stacksize for task 210: unlimited
  | Current stacksize for task 211: unlimited
  | Current stacksize for task 212: unlimited
  | Current stacksize for task 213: unlimited
  | Current stacksize for task 214: unlimited
  | Current stacksize for task 215: unlimited
  | Current stacksize for task 216: unlimited
  | Current stacksize for task 217: unlimited
  | Current stacksize for task 218: unlimited
  | Current stacksize for task 219: unlimited
  | Current stacksize for task 220: unlimited
  | Current stacksize for task 221: unlimited
  | Current stacksize for task 222: unlimited
  | Current stacksize for task 223: unlimited
  | Current stacksize for task 224: unlimited
  | Current stacksize for task 225: unlimited
  | Current stacksize for task 226: unlimited
  | Current stacksize for task 227: unlimited
  | Current stacksize for task 228: unlimited
  | Current stacksize for task 229: unlimited
  | Current stacksize for task 230: unlimited
  | Current stacksize for task 231: unlimited
  | Current stacksize for task 232: unlimited
  | Current stacksize for task 233: unlimited
  | Current stacksize for task 234: unlimited
  | Current stacksize for task 235: unlimited
  | Current stacksize for task 236: unlimited
  | Current stacksize for task 237: unlimited
  | Current stacksize for task 238: unlimited
  | Current stacksize for task 239: unlimited
  | Current stacksize for task 240: unlimited
  | Current stacksize for task 241: unlimited
  | Current stacksize for task 242: unlimited
  | Current stacksize for task 243: unlimited
  | Current stacksize for task 244: unlimited
  | Current stacksize for task 245: unlimited
  | Current stacksize for task 246: unlimited
  | Current stacksize for task 247: unlimited
  | Current stacksize for task 248: unlimited
  | Current stacksize for task 249: unlimited
  | Current stacksize for task 250: unlimited
  | Current stacksize for task 251: unlimited
  | Current stacksize for task 252: unlimited
  | Current stacksize for task 253: unlimited
  | Current stacksize for task 254: unlimited
  | Current stacksize for task 255: unlimited
  | Current stacksize for task 256: unlimited
  | Current stacksize for task 257: unlimited
  | Current stacksize for task 258: unlimited
  | Current stacksize for task 259: unlimited
  | Current stacksize for task 260: unlimited
  | Current stacksize for task 261: unlimited
  | Current stacksize for task 262: unlimited
  | Current stacksize for task 263: unlimited
  | Current stacksize for task 264: unlimited
  | Current stacksize for task 265: unlimited
  | Current stacksize for task 266: unlimited
  | Current stacksize for task 267: unlimited
  | Current stacksize for task 268: unlimited
  | Current stacksize for task 269: unlimited
  | Current stacksize for task 270: unlimited
  | Current stacksize for task 271: unlimited
  | Current stacksize for task 272: unlimited
  | Current stacksize for task 273: unlimited
  | Current stacksize for task 274: unlimited
  | Current stacksize for task 275: unlimited
  | Current stacksize for task 276: unlimited
  | Current stacksize for task 277: unlimited
  | Current stacksize for task 278: unlimited
  | Current stacksize for task 279: unlimited
  | Current stacksize for task 280: unlimited
  | Current stacksize for task 281: unlimited
  | Current stacksize for task 282: unlimited
  | Current stacksize for task 283: unlimited
  | Current stacksize for task 284: unlimited
  | Current stacksize for task 285: unlimited
  | Current stacksize for task 286: unlimited
  | Current stacksize for task 287: unlimited
  | Current stacksize for task 288: unlimited
  | Current stacksize for task 289: unlimited
  | Current stacksize for task 290: unlimited
  | Current stacksize for task 291: unlimited
  | Current stacksize for task 292: unlimited
  | Current stacksize for task 293: unlimited
  | Current stacksize for task 294: unlimited
  | Current stacksize for task 295: unlimited
  | Current stacksize for task 296: unlimited
  | Current stacksize for task 297: unlimited
  | Current stacksize for task 298: unlimited
  | Current stacksize for task 299: unlimited
  | Current stacksize for task 300: unlimited
  | Current stacksize for task 301: unlimited
  | Current stacksize for task 302: unlimited
  | Current stacksize for task 303: unlimited
  | Current stacksize for task 304: unlimited
  | Current stacksize for task 305: unlimited
  | Current stacksize for task 306: unlimited
  | Current stacksize for task 307: unlimited
  | Current stacksize for task 308: unlimited
  | Current stacksize for task 309: unlimited
  | Current stacksize for task 310: unlimited
  | Current stacksize for task 311: unlimited
  | Current stacksize for task 312: unlimited
  | Current stacksize for task 313: unlimited
  | Current stacksize for task 314: unlimited
  | Current stacksize for task 315: unlimited
  | Current stacksize for task 316: unlimited
  | Current stacksize for task 317: unlimited
  | Current stacksize for task 318: unlimited
  | Current stacksize for task 319: unlimited
  | Current stacksize for task 320: unlimited
  | Current stacksize for task 321: unlimited
  | Current stacksize for task 322: unlimited
  | Current stacksize for task 323: unlimited
  | Current stacksize for task 324: unlimited
  | Current stacksize for task 325: unlimited
  | Current stacksize for task 326: unlimited
  | Current stacksize for task 327: unlimited
  | Current stacksize for task 328: unlimited
  | Current stacksize for task 329: unlimited
  | Current stacksize for task 330: unlimited
  | Current stacksize for task 331: unlimited
  | Current stacksize for task 332: unlimited
  | Current stacksize for task 333: unlimited
  | Current stacksize for task 334: unlimited
  | Current stacksize for task 335: unlimited
  | Current stacksize for task 336: unlimited
  | Current stacksize for task 337: unlimited
  | Current stacksize for task 338: unlimited
  | Current stacksize for task 339: unlimited
  | Current stacksize for task 340: unlimited
  | Current stacksize for task 341: unlimited
  | Current stacksize for task 342: unlimited
  | Current stacksize for task 343: unlimited
  | Current stacksize for task 344: unlimited
  | Current stacksize for task 345: unlimited
  | Current stacksize for task 346: unlimited
  | Current stacksize for task 347: unlimited
  | Current stacksize for task 348: unlimited
  | Current stacksize for task 349: unlimited
  | Current stacksize for task 350: unlimited
  | Current stacksize for task 351: unlimited
  | Current stacksize for task 352: unlimited
  | Current stacksize for task 353: unlimited
  | Current stacksize for task 354: unlimited
  | Current stacksize for task 355: unlimited
  | Current stacksize for task 356: unlimited
  | Current stacksize for task 357: unlimited
  | Current stacksize for task 358: unlimited
  | Current stacksize for task 359: unlimited
  | Current stacksize for task 360: unlimited
  | Current stacksize for task 361: unlimited
  | Current stacksize for task 362: unlimited
  | Current stacksize for task 363: unlimited
  | Current stacksize for task 364: unlimited
  | Current stacksize for task 365: unlimited
  | Current stacksize for task 366: unlimited
  | Current stacksize for task 367: unlimited
  | Current stacksize for task 368: unlimited
  | Current stacksize for task 369: unlimited
  | Current stacksize for task 370: unlimited
  | Current stacksize for task 371: unlimited
  | Current stacksize for task 372: unlimited
  | Current stacksize for task 373: unlimited
  | Current stacksize for task 374: unlimited
  | Current stacksize for task 375: unlimited
  | Current stacksize for task 376: unlimited
  | Current stacksize for task 377: unlimited
  | Current stacksize for task 378: unlimited
  | Current stacksize for task 379: unlimited
  | Current stacksize for task 380: unlimited
  | Current stacksize for task 381: unlimited
  | Current stacksize for task 382: unlimited
  | Current stacksize for task 383: unlimited
  | Current stacksize for task 384: unlimited
  | Current stacksize for task 385: unlimited
  | Current stacksize for task 386: unlimited
  | Current stacksize for task 387: unlimited
  | Current stacksize for task 388: unlimited
  | Current stacksize for task 389: unlimited
  | Current stacksize for task 390: unlimited
  | Current stacksize for task 391: unlimited
  | Current stacksize for task 392: unlimited
  | Current stacksize for task 393: unlimited
  | Current stacksize for task 394: unlimited
  | Current stacksize for task 395: unlimited
  | Current stacksize for task 396: unlimited
  | Current stacksize for task 397: unlimited
  | Current stacksize for task 398: unlimited
  | Current stacksize for task 399: unlimited
  | Current stacksize for task 400: unlimited
  | Current stacksize for task 401: unlimited
  | Current stacksize for task 402: unlimited
  | Current stacksize for task 403: unlimited
  | Current stacksize for task 404: unlimited
  | Current stacksize for task 405: unlimited
  | Current stacksize for task 406: unlimited
  | Current stacksize for task 407: unlimited
  | Current stacksize for task 408: unlimited
  | Current stacksize for task 409: unlimited
  | Current stacksize for task 410: unlimited
  | Current stacksize for task 411: unlimited
  | Current stacksize for task 412: unlimited
  | Current stacksize for task 413: unlimited
  | Current stacksize for task 414: unlimited
  | Current stacksize for task 415: unlimited
  | Current stacksize for task 416: unlimited
  | Current stacksize for task 417: unlimited
  | Current stacksize for task 418: unlimited
  | Current stacksize for task 419: unlimited
  | Current stacksize for task 420: unlimited
  | Current stacksize for task 421: unlimited
  | Current stacksize for task 422: unlimited
  | Current stacksize for task 423: unlimited
  | Current stacksize for task 424: unlimited
  | Current stacksize for task 425: unlimited
  | Current stacksize for task 426: unlimited
  | Current stacksize for task 427: unlimited
  | Current stacksize for task 428: unlimited
  | Current stacksize for task 429: unlimited
  | Current stacksize for task 430: unlimited
  | Current stacksize for task 431: unlimited
  | Current stacksize for task 432: unlimited
  | Current stacksize for task 433: unlimited
  | Current stacksize for task 434: unlimited
  | Current stacksize for task 435: unlimited
  | Current stacksize for task 436: unlimited
  | Current stacksize for task 437: unlimited
  | Current stacksize for task 438: unlimited
  | Current stacksize for task 439: unlimited
  | Current stacksize for task 440: unlimited
  | Current stacksize for task 441: unlimited
  | Current stacksize for task 442: unlimited
  | Current stacksize for task 443: unlimited
  | Current stacksize for task 444: unlimited
  | Current stacksize for task 445: unlimited
  | Current stacksize for task 446: unlimited
  | Current stacksize for task 447: unlimited
  | Current stacksize for task 448: unlimited
  | Current stacksize for task 449: unlimited
  | Current stacksize for task 450: unlimited
  | Current stacksize for task 451: unlimited
  | Current stacksize for task 452: unlimited
  | Current stacksize for task 453: unlimited
  | Current stacksize for task 454: unlimited
  | Current stacksize for task 455: unlimited
  | Current stacksize for task 456: unlimited
  | Current stacksize for task 457: unlimited
  | Current stacksize for task 458: unlimited
  | Current stacksize for task 459: unlimited
  | Current stacksize for task 460: unlimited
  | Current stacksize for task 461: unlimited
  | Current stacksize for task 462: unlimited
  | Current stacksize for task 463: unlimited
  | Current stacksize for task 464: unlimited
  | Current stacksize for task 465: unlimited
  | Current stacksize for task 466: unlimited
  | Current stacksize for task 467: unlimited
  | Current stacksize for task 468: unlimited
  | Current stacksize for task 469: unlimited
  | Current stacksize for task 470: unlimited
  | Current stacksize for task 471: unlimited
  | Current stacksize for task 472: unlimited
  | Current stacksize for task 473: unlimited
  | Current stacksize for task 474: unlimited
  | Current stacksize for task 475: unlimited
  | Current stacksize for task 476: unlimited
  | Current stacksize for task 477: unlimited
  | Current stacksize for task 478: unlimited
  | Current stacksize for task 479: unlimited
  | Current stacksize for task 480: unlimited
  | Current stacksize for task 481: unlimited
  | Current stacksize for task 482: unlimited
  | Current stacksize for task 483: unlimited
  | Current stacksize for task 484: unlimited
  | Current stacksize for task 485: unlimited
  | Current stacksize for task 486: unlimited
  | Current stacksize for task 487: unlimited
  | Current stacksize for task 488: unlimited
  | Current stacksize for task 489: unlimited
  | Current stacksize for task 490: unlimited
  | Current stacksize for task 491: unlimited
  | Current stacksize for task 492: unlimited
  | Current stacksize for task 493: unlimited
  | Current stacksize for task 494: unlimited
  | Current stacksize for task 495: unlimited
  | Current stacksize for task 496: unlimited
  | Current stacksize for task 497: unlimited
  | Current stacksize for task 498: unlimited
  | Current stacksize for task 499: unlimited
  | Current stacksize for task 500: unlimited
  | Current stacksize for task 501: unlimited
  | Current stacksize for task 502: unlimited
  | Current stacksize for task 503: unlimited
  | Current stacksize for task 504: unlimited
  | Current stacksize for task 505: unlimited
  | Current stacksize for task 506: unlimited
  | Current stacksize for task 507: unlimited
  | Current stacksize for task 508: unlimited
  | Current stacksize for task 509: unlimited
  | Current stacksize for task 510: unlimited
  | Current stacksize for task 511: unlimited
  | Checking for scalapack...
  | Testing pdtran()...
  | All pdtran() tests passed.

  Obtaining array dimensions for all initial allocations:
  
  -----------------------------------------------------------------------
  Parsing control.in (first pass over file, find array dimensions only).
  The contents of control.in will be repeated verbatim below
  unless switched off by setting 'verbatim_writeout .false.' .
  in the first line of control.in .
  -----------------------------------------------------------------------
  
  #########################################################################################
  #
  #   input file control.in tight for full relaxation
  #
  #########################################################################################
  #  Physical model
    xc                 pbe
    spin               none
    relativistic       none
    charge             0.
  
  #  SCF convergence
    occupation_type    gaussian 0.01
    mixer              pulay
      n_max_pulay        8
      charge_mix_param   0.2
    sc_accuracy_rho    1E-4
    sc_accuracy_eev    1E-2
    sc_accuracy_etot   1E-6
    sc_accuracy_forces 1E-4 #uncomment for relaxation
    sc_iter_limit      5
    check_cpu_consistency .true.
  
  #  Eigenvalue solution
    KS_method	     scalapack_fast
      empty_states       6
      basis_threshold    1.e-5
  
  #  For periodic boundary conditions
      k_grid 1 1 1
  
  # Vdw Corrections
      vdw_correction_hirshfeld
      #many_body_dispersion
  
  
  ################################################################################
  
  ################################################################################
  #
  #  FHI-aims code project
  #  VB, Fritz-Haber Institut, 2009
  #
  #  Suggested "light" defaults for H atom (to be pasted into control.in file)
  #  Be sure to double-check any results obtained with these settings for post-processing,
  #  e.g., with the "tight" defaults and larger basis sets.
  #
  ################################################################################
    species        H
  #     global species definitions
      nucleus             1
      mass                1.00794
  #
      l_hartree           4
  #
      cut_pot             3.5  1.5  1.0
      basis_dep_cutoff    1e-4
  #
      radial_base         24 5.0
      radial_multiplier   1
      angular_grids       specified
        division   0.2421   50
        division   0.3822  110
        division   0.4799  194
        division   0.5341  302
  #      division   0.5626  434
  #      division   0.5922  590
  #      division   0.6542  770
  #      division   0.6868 1202
  #      outer_grid  770
        outer_grid  302
  ################################################################################
  #
  #  Definition of "minimal" basis
  #
  ################################################################################
  #     valence basis states
      valence      1  s   1.
  #     ion occupancy
      ion_occ      1  s   0.5
  ################################################################################
  #
  #  Suggested additional basis functions. For production calculations,
  #  uncomment them one after another (the most important basis functions are
  #  listed first).
  #
  #  Basis constructed for dimers: 0.5 A, 0.7 A, 1.0 A, 1.5 A, 2.5 A
  #
  ################################################################################
  #  "First tier" - improvements: -1014.90 meV to -62.69 meV
       hydro 2 s 2.1
       hydro 2 p 3.5
  #  "Second tier" - improvements: -12.89 meV to -1.83 meV
  #     hydro 1 s 0.85
  #     hydro 2 p 3.7
  #     hydro 2 s 1.2
  #     hydro 3 d 7
  #  "Third tier" - improvements: -0.25 meV to -0.12 meV
  #     hydro 4 f 11.2
  #     hydro 3 p 4.8
  #     hydro 4 d 9
  #     hydro 3 s 3.2
  ################################################################################
  #
  #  FHI-aims code project
  #  VB, Fritz-Haber Institut, 2009
  #
  #  Suggested "light" defaults for C atom (to be pasted into control.in file)
  #  Be sure to double-check any results obtained with these settings for post-processing,
  #  e.g., with the "tight" defaults and larger basis sets.
  #
  ################################################################################
    species        C
  #     global species definitions
      nucleus             6
      mass                12.0107
  #
      l_hartree           4
  #
      cut_pot             3.5  1.5  1.0
      basis_dep_cutoff    1e-4
  #
      radial_base         34 5.0
      radial_multiplier   1
      angular_grids specified
        division   0.3326   50
        division   0.5710  110
        division   0.7727  194
        division   0.8772  302
  #      division   0.9334  434
  #      division   0.9625  590
  #      division   0.9924  770
  #      division   1.0230  974
  #      division   1.4589 1202
  #     outer_grid  974
       outer_grid 302
  ################################################################################
  #
  #  Definition of "minimal" basis
  #
  ################################################################################
  #     valence basis states
      valence      2  s   2.
      valence      2  p   2.
  #     ion occupancy
      ion_occ      2  s   1.
      ion_occ      2  p   1.
  ################################################################################
  #
  #  Suggested additional basis functions. For production calculations,
  #  uncomment them one after another (the most important basis functions are
  #  listed first).
  #
  #  Constructed for dimers: 1.0 A, 1.25 A, 1.5 A, 2.0 A, 3.0 A
  #
  ################################################################################
  #  "First tier" - improvements: -1214.57 meV to -155.61 meV
       hydro 2 p 1.7
       hydro 3 d 6
       hydro 2 s 4.9
  #  "Second tier" - improvements: -67.75 meV to -5.23 meV
  #     hydro 4 f 9.8
  #     hydro 3 p 5.2
  #     hydro 3 s 4.3
  #     hydro 5 g 14.4
  #     hydro 3 d 6.2
  #  "Third tier" - improvements: -2.43 meV to -0.60 meV
  #     hydro 2 p 5.6
  #     hydro 2 s 1.4
  #     hydro 3 d 4.9
  #     hydro 4 f 11.2
  #  "Fourth tier" - improvements: -0.39 meV to -0.18 meV
  #     hydro 2 p 2.1
  #     hydro 5 g 16.4
  #     hydro 4 d 13.2
  #     hydro 3 s 13.6
  #     hydro 4 f 17.6
  #  Further basis functions - improvements: -0.08 meV and below
  #     hydro 3 s 2
  #     hydro 3 p 6
  #     hydro 4 d 20
  ################################################################################
  #
  #  FHI-aims code project
  #  VB, Fritz-Haber Institut, 2009
  #
  #  Suggested "light" defaults for F atom (to be pasted into control.in file)
  #  Be sure to double-check any results obtained with these settings for post-processing,
  #  e.g., with the "tight" defaults and larger basis sets.
  #
  ################################################################################
    species        F
  #     global species definitions
      nucleus             9
      mass                18.9984032
  #
      l_hartree           4
  #
      cut_pot             3.5  1.5  1.0
      basis_dep_cutoff    1e-4
  #
      radial_base         37 5.0
      radial_multiplier   1
      angular_grids specified
        division   0.4014  110
        division   0.5291  194
        division   0.6019  302
  #      division   0.6814  434
  #      division   0.7989  590
  #      division   0.8965  770
  #      division   1.3427  974
  #      outer_grid   974
        outer_grid   302
  ################################################################################
  #
  #  Definition of "minimal" basis
  #
  ################################################################################
  #     valence basis states
      valence      2  s   2.
      valence      2  p   5.
  #     ion occupancy
      ion_occ      2  s   1.
      ion_occ      2  p   4.
  ################################################################################
  #
  #  Suggested additional basis functions. For production calculations,
  #  uncomment them one after another (the most important basis functions are
  #  listed first).
  #
  #  Constructed for dimers: 1.2 A, 1.418 A, 1.75 A, 2.25 A, 3.25 A
  #
  ################################################################################
  #  "First tier" - improvements: -149.44 meV to -45.88 meV
       hydro 2 p 1.7
       hydro 3 d 7.4
       hydro 3 s 6.8
  #  "Second tier" - improvements: -12.96 meV to -1.56 meV
  #     hydro 4 f 11.2
  #     ionic 2 p auto
  #     hydro 1 s 0.75
  #     hydro 4 d 8.8
  #     hydro 5 g 16.8
  #  "Third tier" - improvements: -0.58 meV to -0.05 meV
  #     hydro 3 p 6.2
  #     hydro 3 s 3.2
  #     hydro 4 f 9.6
  #     hydro 3 s 19.6
  #     hydro 4 d 8.6
  #     hydro 5 g 14.4
  # Further basis functions: -0.05 meV and below
  #     hydro 3 p 4.2
  ################################################################################
  #
  #  FHI-aims code project
  #  VB, Fritz-Haber Institut, 2009
  #
  #  Suggested "light" defaults for Cl atom (to be pasted into control.in file)
[...]
  atom #   33
   Hellmann-Feynman              : -0.530560E-02  0.406711E-01  0.103960E+00
   Ionic forces                  :  0.000000E+00  0.000000E+00  0.000000E+00
   Multipole                     :  0.151070E+00  0.465473E-01  0.174511E-01
   Pulay + GGA                  :  -0.102130E+00 -0.450792E-01  0.759998E-02
   Van der Waals                 : -0.592459E-03 -0.493252E-02  0.966694E-02
   ----------------------------------------------------------------
   Total forces(  33)            :  0.430421E-01  0.372066E-01  0.138678E+00
  atom #   34
   Hellmann-Feynman              : -0.171346E+00  0.861063E+00  0.336518E+00
   Ionic forces                  :  0.000000E+00  0.000000E+00  0.000000E+00
   Multipole                     :  0.200580E-01  0.880787E-01  0.441634E+00
   Pulay + GGA                  :  -0.849744E-01 -0.726005E+00 -0.811728E+00
   Van der Waals                 : -0.106080E-01  0.289345E-01  0.288091E-01
   ----------------------------------------------------------------
   Total forces(  34)            : -0.246871E+00  0.252072E+00 -0.476706E-02
  atom #   35
   Hellmann-Feynman              :  0.663677E-01  0.249091E-01 -0.105377E+00
   Ionic forces                  :  0.000000E+00  0.000000E+00  0.000000E+00
   Multipole                     : -0.102662E+00  0.110015E-02  0.123425E+00
   Pulay + GGA                  :   0.596241E-01  0.305455E-01 -0.892740E-01
   Van der Waals                 : -0.127969E-01  0.791915E-02  0.146720E-01
   ----------------------------------------------------------------
   Total forces(  35)            :  0.105329E-01  0.644739E-01 -0.565539E-01
  atom #   36
   Hellmann-Feynman              :  0.557557E-01 -0.239690E+00 -0.496849E-01
   Ionic forces                  :  0.000000E+00  0.000000E+00  0.000000E+00
   Multipole                     : -0.512621E-01  0.162734E+00  0.440269E-01
   Pulay + GGA                  :  -0.346720E-02 -0.100297E+00  0.605740E-02
   Van der Waals                 : -0.419280E-02  0.611958E-02  0.138830E-02
   ----------------------------------------------------------------
   Total forces(  36)            : -0.316636E-02 -0.171134E+00  0.178769E-02
  atom #   37
   Hellmann-Feynman              :  0.162930E+01 -0.170434E+01 -0.991863E+00
   Ionic forces                  :  0.000000E+00  0.000000E+00  0.000000E+00
   Multipole                     : -0.193437E+00  0.120875E+00 -0.450454E-01
   Pulay + GGA                  :  -0.129255E+01  0.141919E+01  0.111606E+01
   Van der Waals                 : -0.166386E-01  0.326968E-02 -0.829626E-02
   ----------------------------------------------------------------
   Total forces(  37)            :  0.126673E+00 -0.161007E+00  0.708532E-01
  atom #   38
   Hellmann-Feynman              : -0.203480E+01  0.431163E+01  0.232783E+01
   Ionic forces                  :  0.000000E+00  0.000000E+00  0.000000E+00
   Multipole                     : -0.119641E-01 -0.152476E+00 -0.802317E-01
   Pulay + GGA                  :   0.158735E+01 -0.369787E+01 -0.274697E+01
   Van der Waals                 : -0.722972E-02 -0.206769E-02 -0.196231E-01
   ----------------------------------------------------------------
   Total forces(  38)            : -0.466644E+00  0.459219E+00 -0.518998E+00
  atom #   39
   Hellmann-Feynman              :  0.533928E+00  0.916225E-01 -0.580468E-01
   Ionic forces                  :  0.000000E+00  0.000000E+00  0.000000E+00
   Multipole                     : -0.150208E+00  0.536604E-01 -0.423118E-01
   Pulay + GGA                  :   0.550936E-01 -0.174361E-01  0.777960E-01
   Van der Waals                 :  0.109848E-01 -0.362296E-03  0.103251E-02
   ----------------------------------------------------------------
   Total forces(  39)            :  0.449798E+00  0.127485E+00 -0.215301E-01
  atom #   40
   Hellmann-Feynman              :  0.423382E+01 -0.659825E+01  0.127905E+02
   Ionic forces                  :  0.000000E+00  0.000000E+00  0.000000E+00
   Multipole                     :  0.309346E+00 -0.316675E+00  0.717105E+00
   Pulay + GGA                  :  -0.476000E+01  0.688005E+01 -0.134531E+02
   Van der Waals                 :  0.519129E-02 -0.128054E-01 -0.603683E-02
   ----------------------------------------------------------------
   Total forces(  40)            : -0.211652E+00 -0.476845E-01  0.485153E-01
  atom #   41
   Hellmann-Feynman              : -0.398104E+01 -0.834884E+00 -0.315347E+01
   Ionic forces                  :  0.000000E+00  0.000000E+00  0.000000E+00
   Multipole                     :  0.103438E+00  0.639486E-01  0.180243E+00
   Pulay + GGA                  :   0.390027E+01  0.540459E+00  0.299345E+01
   Van der Waals                 : -0.663241E-02 -0.122943E-01  0.506562E-02
   ----------------------------------------------------------------
   Total forces(  41)            :  0.160428E-01 -0.242771E+00  0.252807E-01
  atom #   42
   Hellmann-Feynman              :  0.252359E+00  0.126647E+00 -0.108310E+00
   Ionic forces                  :  0.000000E+00  0.000000E+00  0.000000E+00
   Multipole                     : -0.113773E+00 -0.101179E+00  0.673379E-01
   Pulay + GGA                  :   0.584173E-01  0.314311E-01 -0.784382E-01
   Van der Waals                 : -0.100647E-01  0.702372E-03 -0.895540E-02
   ----------------------------------------------------------------
   Total forces(  42)            :  0.186938E+00  0.576013E-01 -0.128366E+00
  atom #   43
   Hellmann-Feynman              :  0.214315E+01 -0.140473E-01  0.511912E+00
   Ionic forces                  :  0.000000E+00  0.000000E+00  0.000000E+00
   Multipole                     : -0.136696E+00 -0.556676E-01  0.419437E-03
   Pulay + GGA                  :  -0.199644E+01 -0.708322E-01 -0.665645E+00
   Van der Waals                 : -0.113188E-01 -0.145900E-01  0.904403E-02
   ----------------------------------------------------------------
   Total forces(  43)            : -0.131345E-02 -0.155137E+00 -0.144269E+00
  atom #   44
   Hellmann-Feynman              : -0.490171E+00 -0.439779E+00 -0.720854E+00
   Ionic forces                  :  0.000000E+00  0.000000E+00  0.000000E+00
   Multipole                     : -0.143567E+00  0.212142E+00 -0.402535E+00
   Pulay + GGA                  :   0.702095E+00 -0.148105E+00  0.110290E+01
   Van der Waals                 : -0.328917E-01  0.528912E-02 -0.198884E-01
   ----------------------------------------------------------------
   Total forces(  44)            :  0.354654E-01 -0.370453E+00 -0.403798E-01
  atom #   45
   Hellmann-Feynman              :  0.404405E-01  0.144510E+00  0.192640E+00
   Ionic forces                  :  0.000000E+00  0.000000E+00  0.000000E+00
   Multipole                     : -0.866333E-01 -0.858923E-01 -0.116926E+00
   Pulay + GGA                  :   0.418283E-01  0.882072E-01  0.310240E-01
   Van der Waals                 : -0.159239E-01 -0.414641E-02 -0.198273E-02
   ----------------------------------------------------------------
   Total forces(  45)            : -0.202884E-01  0.142678E+00  0.104756E+00
  atom #   46
   Hellmann-Feynman              :  0.578110E-02  0.466636E-01 -0.104265E+00
   Ionic forces                  :  0.000000E+00  0.000000E+00  0.000000E+00
   Multipole                     : -0.151329E+00  0.470543E-01 -0.165295E-01
   Pulay + GGA                  :   0.102849E+00 -0.453336E-01 -0.744986E-02
   Van der Waals                 :  0.358896E-03 -0.345281E-02 -0.104612E-01
   ----------------------------------------------------------------
   Total forces(  46)            : -0.423401E-01  0.449314E-01 -0.138705E+00
  atom #   47
   Hellmann-Feynman              :  0.174705E+00  0.854031E+00 -0.331271E+00
   Ionic forces                  :  0.000000E+00  0.000000E+00  0.000000E+00
   Multipole                     : -0.232540E-01  0.962152E-01 -0.437482E+00
   Pulay + GGA                  :   0.816949E-01 -0.726186E+00  0.803994E+00
   Van der Waals                 :  0.109341E-01  0.297353E-01 -0.291549E-01
   ----------------------------------------------------------------
   Total forces(  47)            :  0.244080E+00  0.253795E+00  0.608657E-02
  atom #   48
   Hellmann-Feynman              : -0.670047E-01  0.237825E-01  0.105447E+00
   Ionic forces                  :  0.000000E+00  0.000000E+00  0.000000E+00
   Multipole                     :  0.102631E+00  0.238501E-02 -0.123534E+00
   Pulay + GGA                  :  -0.596286E-01  0.289925E-01  0.898179E-01
   Van der Waals                 :  0.129850E-01  0.836034E-02 -0.145923E-01
   ----------------------------------------------------------------
   Total forces(  48)            : -0.110177E-01  0.635203E-01  0.571383E-01
  atom #   49
   Hellmann-Feynman              : -0.542681E-01 -0.234183E+00  0.455559E-01
   Ionic forces                  :  0.000000E+00  0.000000E+00  0.000000E+00
   Multipole                     :  0.506258E-01  0.162270E+00 -0.418708E-01
   Pulay + GGA                  :   0.256384E-02 -0.100665E+00 -0.774770E-02
   Van der Waals                 :  0.468855E-02  0.594170E-02 -0.120719E-02
   ----------------------------------------------------------------
   Total forces(  49)            :  0.361004E-02 -0.166637E+00 -0.526977E-02
  atom #   50
   Hellmann-Feynman              : -0.163630E+01 -0.170284E+01  0.986183E+00
   Ionic forces                  :  0.000000E+00  0.000000E+00  0.000000E+00
   Multipole                     :  0.198062E+00  0.117160E+00  0.433079E-01
   Pulay + GGA                  :   0.128915E+01  0.142469E+01 -0.110829E+01
   Van der Waals                 :  0.159789E-01  0.282703E-02  0.794903E-02
   ----------------------------------------------------------------
   Total forces(  50)            : -0.133107E+00 -0.158164E+00 -0.708501E-01
  atom #   51
   Hellmann-Feynman              :  0.202513E+01  0.432446E+01 -0.229647E+01
   Ionic forces                  :  0.000000E+00  0.000000E+00  0.000000E+00
   Multipole                     :  0.189088E-01 -0.163069E+00  0.785516E-01
   Pulay + GGA                  :  -0.158706E+01 -0.371561E+01  0.272315E+01
   Van der Waals                 :  0.624963E-02 -0.283424E-02  0.182065E-01
   ----------------------------------------------------------------
   Total forces(  51)            :  0.463226E+00  0.442946E+00  0.523439E+00
  atom #   52
   Hellmann-Feynman              : -0.534724E+00  0.785349E-01  0.544842E-01
   Ionic forces                  :  0.000000E+00  0.000000E+00  0.000000E+00
   Multipole                     :  0.150857E+00  0.528523E-01  0.427747E-01
   Pulay + GGA                  :  -0.536037E-01 -0.180917E-01 -0.779486E-01
   Van der Waals                 : -0.114387E-01 -0.949279E-03 -0.161167E-02
   ----------------------------------------------------------------
   Total forces(  52)            : -0.448909E+00  0.112346E+00  0.176986E-01

  Timings for VdW correction (Tkatchenko-Scheffler 2009 or later):
  | CPU time:        3.856 s, Wall clock time:        3.798 s.
  Removing unitary transformations (pure translations, rotations) from forces on atoms.
  Atomic forces before filtering:
  | Net force on center of mass :   0.382277E-02 -0.169514E+00  0.331828E-01 eV/A
  Atomic forces after filtering:
  | Net force on center of mass :   0.000000E+00  0.111504E-15 -0.111504E-16 eV/A

  Energy and forces in a compact form:
  | Total energy uncorrected      :         -0.334332987216440E+05 eV
  | Total energy corrected        :         -0.334332987216440E+05 eV  <-- do not rely on this value for anything but (periodic) metals
  | Electronic free energy        :         -0.334332987216440E+05 eV
  Total atomic forces (unitary forces cleaned) [eV/Ang]:
  |   1         -0.222921991884446E+00         -0.727178242816273E-01         -0.133024037465589E-01
  |   2          0.806267721308783E-01         -0.281143380328273E+00         -0.775517460936122E-01
  |   3          0.115718987400036E+00          0.830798060578911E-01          0.131194906981732E+00
  |   4         -0.145668508963240E-01         -0.167703936741958E+00          0.161481811210545E+00
  |   5          0.568717192916271E-01         -0.205686953562000E+00          0.298316836043230E-01
  |   6          0.693528465760771E-01          0.109821465831354E+00         -0.914398810179598E-01
  |   7         -0.352687339199209E-01          0.692513311440150E-01          0.116810164340654E+00
  |   8          0.338945395809920E+00          0.240898729436752E+00          0.861405874879545E-01
  |   9         -0.489629283265990E-01          0.399659700377000E-01         -0.663094444808322E-01
  |  10          0.483532986388984E-01         -0.158939400922794E+00         -0.153718938787182E-01
  |  11         -0.144294921064963E+00         -0.146233100398496E+00          0.931322824728121E-01
  |  12          0.506342400515133E+00          0.331007724559181E+00         -0.523739772598185E+00
  |  13         -0.491557450646786E+00          0.209961139116642E+00         -0.457875406547996E-01
  |  14          0.221162828685285E+00         -0.855920562071347E-01          0.124611221368609E-01
  |  15         -0.770280312631485E-01         -0.295534298357294E+00          0.686904048223633E-01
  |  16         -0.115882342610617E+00          0.715723068117864E-01         -0.127143435428018E+00
  |  17          0.228526057558692E-01         -0.185326202965286E+00         -0.161892146426768E+00
  |  18         -0.460867816597898E-01         -0.224744081273709E+00         -0.214177561267290E-01
  |  19         -0.576144439488041E-01          0.859604987332998E-01          0.960890306669911E-01
  |  20          0.360859002042381E-01          0.592532352154732E-01         -0.113861680585795E+00
  |  21         -0.347220715873071E+00          0.227418220595082E+00         -0.859189177677594E-01
  |  22          0.456367784370760E-01          0.372867688833615E-01          0.664356000839271E-01
  |  23         -0.600035593054034E-01         -0.188150474932736E+00          0.106992479885136E-01
  |  24          0.139074052101233E+00         -0.154373338972412E+00         -0.950899891657682E-01
  |  25         -0.509242578315835E+00          0.300323038015268E+00          0.512941459924878E+00
  |  26          0.490613361050215E+00          0.201519452655391E+00          0.421745918161702E-01
  |  27          0.212537993663223E+00         -0.341663874529162E-01         -0.392109254178894E-01
  |  28         -0.309718300587287E-02         -0.222949815602686E+00         -0.183328707704838E-01
  |  29         -0.189772043646327E+00          0.694062741754271E-01          0.133911411397656E+00
  |  30         -0.870192774738525E-03         -0.148227360197919E+00          0.142865615932154E+00
  |  31         -0.324273740908407E-01         -0.365377893938077E+00          0.405321081436148E-01
  |  32          0.200139648883134E-01          0.149654414407875E+00         -0.100802341594376E+00
  |  33          0.429685400719125E-01          0.404665181560524E-01          0.138039632665579E+00
  |  34         -0.246944302764985E+00          0.255331847361152E+00         -0.540518885996410E-02
  |  35          0.104594061428423E-01          0.677338233494726E-01         -0.571920178170005E-01
  |  36         -0.323987048024834E-02         -0.167874061327612E+00          0.114956283421046E-02
  |  37          0.126599000631606E+00         -0.157747393097216E+00          0.702150370668804E-01
  |  38         -0.466717663171619E+00          0.462478915618713E+00         -0.519636309246107E+00
  |  39          0.449724968374447E+00          0.130744413003800E+00         -0.221682361683038E-01
  |  40         -0.211725308129362E+00         -0.444245627440172E-01          0.478771573496518E-01
  |  41          0.159693265048617E-01         -0.239510807119334E+00          0.246425977941299E-01
  |  42          0.186864717274180E+00          0.608612149942312E-01         -0.129003696051367E+00
  |  43         -0.138696336015808E-02         -0.151877240655162E+00         -0.144907627559443E+00
  |  44          0.353918462192710E-01         -0.367193068908801E+00         -0.410179137035858E-01
  |  45         -0.203619403043726E-01          0.145938189927562E+00          0.104117614747891E+00
  |  46         -0.424136373914760E-01          0.481912868643967E-01         -0.139343552829258E+00
  |  47          0.244006752465115E+00          0.257055200589515E+00          0.544843992523007E-02
  |  48         -0.110911682394407E-01          0.667802230403564E-01          0.565001606645398E-01
  |  49          0.353652123045574E-02         -0.163376830692040E+00         -0.590790194050570E-02
  |  50         -0.133180231637310E+00         -0.154903649872256E+00         -0.714881814298037E-01
  |  51          0.463152060946861E+00          0.446206016666795E+00          0.522800629943919E+00
  |  52         -0.448982836297117E+00          0.115606095303212E+00          0.170605093564099E-01

  ------------------------------------ 
  Start decomposition of the XC Energy 
  ------------------------------------ 
  Hartree-Fock part   :          0.000000000 Ha              0.000000000 eV
  ------------------------------------ 
  X Energy            :       -165.251603299 Ha          -4496.724916619 eV
  C Energy GGA        :         -6.707168833 Ha           -182.511350017 eV
  Total XC Energy     :       -171.958772132 Ha          -4679.236266636 eV
  LDA X and C from self-consistent density 
  X Energy LDA        :       -149.865570948 Ha          -4078.049674369 eV
  C Energy LDA        :        -12.949385649 Ha           -352.370711935 eV
  ------------------------------------ 
  End decomposition of the XC Energy 
  ------------------------------------ 

 ***********************************************************
 *
 * WARNING! SELF-CONSISTENCY CYCLE DID NOT CONVERGE
 * USING YOUR PRESELECTED ACCURACY CRITERIA.
 * DO NOT RELY ON ANY FINAL DATA WITHOUT FURTHER CHECKS.
 *
 ***********************************************************
 * NO POSTPROCESSING WILL BE DONE
 * IF YOU WANT POSTPROCESSING ANYWAY, SET postprocess_anyway TO .true.
 ***********************************************************

------------------------------------------------------------
          Leaving FHI-aims.
          Date     :  20180104, Time     :  205207.656

          Computational steps:
          | Number of self-consistency cycles          :            5

          Detailed time accounting                     :  max(cpu_time)    wall_clock(cpu1)
          | Total time                                 :       19.436 s          19.783 s
          | Preparation time                           :        1.824 s           1.821 s
          | Boundary condition initalization           :        1.160 s           1.157 s
          | Grid partitioning                          :        0.404 s           0.403 s
          | Preloading free-atom quantities on grid    :        0.084 s           0.083 s
          | Free-atom superposition energy             :        0.052 s           0.050 s
          | Total time for integrations                :        1.416 s           1.379 s
          | Total time for solution of K.-S. equations :        1.128 s           1.112 s
          | Total time for density & force components  :        3.264 s           2.975 s
          | Total time for mixing & preconditioning    :        2.084 s           2.077 s
          | Total time for Hartree multipole update    :        0.124 s           0.116 s
          | Total time for Hartree multipole sum       :        3.236 s           3.224 s
          | Total time for total energy evaluation     :        0.036 s           0.021 s
          | Total time for vdW correction              :        3.856 s           3.798 s

------------------------------------------------------------
 *** scf_solver: SCF cycle not converged.
Application 3903522 resources: utime ~9663s, stime ~651s, Rss ~143024, inblocks ~0, outblocks ~0
